 Entering Gaussian System, Link 0=g16
 Input=/home/gaussian/Documents/Summer_Internship/Acid_Base_adduct/Acid/AlCl3/MX3-/MX3_planar_ion_opt.com
 Output=/home/gaussian/Documents/Summer_Internship/Acid_Base_adduct/Acid/AlCl3/MX3-/MX3_planar_ion_opt.log
 Initial command:
 /usr/local/g16/l1.exe "/home/gaussian/tmp/Gau-31792.inp" -scrdir="/home/gaussian/tmp/"
 Entering Link 1 = /usr/local/g16/l1.exe PID=     31795.
  
 Copyright (c) 1988-2017, Gaussian, Inc.  All Rights Reserved.
  
 This is part of the Gaussian(R) 16 program.  It is based on
 the Gaussian(R) 09 system (copyright 2009, Gaussian, Inc.),
 the Gaussian(R) 03 system (copyright 2003, Gaussian, Inc.),
 the Gaussian(R) 98 system (copyright 1998, Gaussian, Inc.),
 the Gaussian(R) 94 system (copyright 1995, Gaussian, Inc.),
 the Gaussian 92(TM) system (copyright 1992, Gaussian, Inc.),
 the Gaussian 90(TM) system (copyright 1990, Gaussian, Inc.),
 the Gaussian 88(TM) system (copyright 1988, Gaussian, Inc.),
 the Gaussian 86(TM) system (copyright 1986, Carnegie Mellon
 University), and the Gaussian 82(TM) system (copyright 1983,
 Carnegie Mellon University). Gaussian is a federally registered
 trademark of Gaussian, Inc.
  
 This software contains proprietary and confidential information,
 including trade secrets, belonging to Gaussian, Inc.
  
 This software is provided under written license and may be
 used, copied, transmitted, or stored only in accord with that
 written license.
  
 The following legend is applicable only to US Government
 contracts under FAR:
  
                    RESTRICTED RIGHTS LEGEND
  
 Use, reproduction and disclosure by the US Government is
 subject to restrictions as set forth in subparagraphs (a)
 and (c) of the Commercial Computer Software - Restricted
 Rights clause in FAR 52.227-19.
  
 Gaussian, Inc.
 340 Quinnipiac St., Bldg. 40, Wallingford CT 06492
  
  
 ---------------------------------------------------------------
 Warning -- This program may not be used in any manner that
 competes with the business of Gaussian, Inc. or will provide
 assistance to any competitor of Gaussian, Inc.  The licensee
 of this program is prohibited from giving any competitor of
 Gaussian, Inc. access to this program.  By using this program,
 the user acknowledges that Gaussian, Inc. is engaged in the
 business of creating and licensing software in the field of
 computational chemistry and represents and warrants to the
 licensee that it is not a competitor of Gaussian, Inc. and that
 it will not use this program in any manner prohibited above.
 ---------------------------------------------------------------
  

 Cite this work as:
 Gaussian 16, Revision B.01,
 M. J. Frisch, G. W. Trucks, H. B. Schlegel, G. E. Scuseria, 
 M. A. Robb, J. R. Cheeseman, G. Scalmani, V. Barone, 
 G. A. Petersson, H. Nakatsuji, X. Li, M. Caricato, A. V. Marenich, 
 J. Bloino, B. G. Janesko, R. Gomperts, B. Mennucci, H. P. Hratchian, 
 J. V. Ortiz, A. F. Izmaylov, J. L. Sonnenberg, D. Williams-Young, 
 F. Ding, F. Lipparini, F. Egidi, J. Goings, B. Peng, A. Petrone, 
 T. Henderson, D. Ranasinghe, V. G. Zakrzewski, J. Gao, N. Rega, 
 G. Zheng, W. Liang, M. Hada, M. Ehara, K. Toyota, R. Fukuda, 
 J. Hasegawa, M. Ishida, T. Nakajima, Y. Honda, O. Kitao, H. Nakai, 
 T. Vreven, K. Throssell, J. A. Montgomery, Jr., J. E. Peralta, 
 F. Ogliaro, M. J. Bearpark, J. J. Heyd, E. N. Brothers, K. N. Kudin, 
 V. N. Staroverov, T. A. Keith, R. Kobayashi, J. Normand, 
 K. Raghavachari, A. P. Rendell, J. C. Burant, S. S. Iyengar, 
 J. Tomasi, M. Cossi, J. M. Millam, M. Klene, C. Adamo, R. Cammi, 
 J. W. Ochterski, R. L. Martin, K. Morokuma, O. Farkas, 
 J. B. Foresman, and D. J. Fox, Gaussian, Inc., Wallingford CT, 2016.
 
 ******************************************
 Gaussian 16:  EM64L-G16RevB.01 20-Dec-2017
                13-Jun-2025 
 ******************************************
 %chk=MX3_planar_ion_opt.chk
 -----------------------------------------------
 # opt freq uhf/3-21g pop=full geom=connectivity
 -----------------------------------------------
 1/18=20,19=15,38=1,57=2/1,3;
 2/9=110,12=2,17=6,18=5,40=1/2;
 3/5=5,11=2,25=1,30=1,71=1,116=2/1,2,3;
 4//1;
 5/5=2,38=5/2;
 6/7=3,28=1/1;
 7//1,2,3,16;
 1/18=20,19=15/3(2);
 2/9=110/2;
 99//99;
 2/9=110/2;
 3/5=5,11=2,25=1,30=1,71=1,116=2/1,2,3;
 4/5=5,16=3,69=1/1;
 5/5=2,38=5/2;
 7//1,2,3,16;
 1/18=20,19=15/3(-5);
 2/9=110/2;
 6/7=3,19=2,28=1/1;
 99/9=1/99;
 -------------------
 Title Card Required
 -------------------
 Symbolic Z-matrix:
 Charge = -1 Multiplicity = 2
 Al                    0.        0.       -0.4914 
 Cl                    0.        2.40603   0.1242 
 Cl                   -2.08368  -1.20301   0.1242 
 Cl                    2.08368  -1.20301   0.1242 
 
 Add virtual bond connecting atoms Cl2        and Al1        Dist= 4.69D+00.
 Add virtual bond connecting atoms Cl3        and Al1        Dist= 4.69D+00.
 Add virtual bond connecting atoms Cl4        and Al1        Dist= 4.69D+00.

 GradGradGradGradGradGradGradGradGradGradGradGradGradGradGradGradGradGrad
 Berny optimization.
 Initialization pass.
                           ----------------------------
                           !    Initial Parameters    !
                           ! (Angstroms and Degrees)  !
 --------------------------                            --------------------------
 ! Name  Definition              Value          Derivative Info.                !
 --------------------------------------------------------------------------------
 ! R1    R(1,2)                  2.4835         estimate D2E/DX2                !
 ! R2    R(1,3)                  2.4835         estimate D2E/DX2                !
 ! R3    R(1,4)                  2.4835         estimate D2E/DX2                !
 ! A1    A(2,1,3)              114.0691         estimate D2E/DX2                !
 ! A2    A(2,1,4)              114.0691         estimate D2E/DX2                !
 ! A3    A(3,1,4)              114.0691         estimate D2E/DX2                !
 ! D1    D(2,1,4,3)            133.5295         estimate D2E/DX2                !
 --------------------------------------------------------------------------------
 Trust Radius=3.00D-01 FncErr=1.00D-07 GrdErr=1.00D-07 EigMax=2.50D+02 EigMin=1.00D-04
 Number of steps in this run=     20 maximum allowed number of steps=    100.
 GradGradGradGradGradGradGradGradGradGradGradGradGradGradGradGradGradGrad

                          Input orientation:                          
 ---------------------------------------------------------------------
 Center     Atomic      Atomic             Coordinates (Angstroms)
 Number     Number       Type             X           Y           Z
 ---------------------------------------------------------------------
      1         13           0        0.000000    0.000000   -0.491400
      2         17           0        0.000000    2.406025    0.124200
      3         17           0       -2.083679   -1.203013    0.124200
      4         17           0        2.083679   -1.203013    0.124200
 ---------------------------------------------------------------------
                    Distance matrix (angstroms):
                    1          2          3          4
     1  Al   0.000000
     2  Cl   2.483530   0.000000
     3  Cl   2.483530   4.167358   0.000000
     4  Cl   2.483530   4.167358   4.167358   0.000000
 Stoichiometry    AlCl3(1-,2)
 Framework group  C3V[C3(Al),3SGV(Cl)]
 Deg. of freedom     2
 Full point group                 C3V     NOp   6
 Largest Abelian subgroup         CS      NOp   2
 Largest concise Abelian subgroup CS      NOp   2
                         Standard orientation:                         
 ---------------------------------------------------------------------
 Center     Atomic      Atomic             Coordinates (Angstroms)
 Number     Number       Type             X           Y           Z
 ---------------------------------------------------------------------
      1         13           0       -0.000000    0.000000    0.490556
      2         17           0       -0.000000    2.406025   -0.125044
      3         17           0        2.083679   -1.203013   -0.125044
      4         17           0       -2.083679   -1.203013   -0.125044
 ---------------------------------------------------------------------
 Rotational constants (GHZ):           1.6209319           1.6209319           0.8321741
 Standard basis: 3-21G (6D, 7F)
 There are    33 symmetry adapted cartesian basis functions of A'  symmetry.
 There are    19 symmetry adapted cartesian basis functions of A"  symmetry.
 There are    33 symmetry adapted basis functions of A'  symmetry.
 There are    19 symmetry adapted basis functions of A"  symmetry.
    52 basis functions,   108 primitive gaussians,    52 cartesian basis functions
    33 alpha electrons       32 beta electrons
       nuclear repulsion energy       251.3614040393 Hartrees.
 NAtoms=    4 NActive=    4 NUniq=    2 SFac= 4.00D+00 NAtFMM=   60 NAOKFM=F Big=F
 Integral buffers will be    131072 words long.
 Raffenetti 2 integral format.
 Two-electron integral symmetry is turned on.
 One-electron integrals computed using PRISM.
 NBasis=    52 RedAO= T EigKep=  5.00D-02  NBF=    33    19
 NBsUse=    52 1.00D-06 EigRej= -1.00D+00 NBFU=    33    19
 ExpMin= 6.39D-02 ExpMax= 1.38D+03 ExpMxC= 1.38D+03 IAcc=3 IRadAn=         5 AccDes= 0.00D+00
 Harris functional with IExCor=  205 and IRadAn=       5 diagonalized for initial guess.
 HarFok:  IExCor=  205 AccDes= 0.00D+00 IRadAn=         5 IDoV= 1 UseB2=F ITyADJ=14
 ICtDFT=  3500011 ScaDFX=  1.000000  1.000000  1.000000  1.000000
 FoFCou: FMM=F IPFlag=           0 FMFlag=      100000 FMFlg1=           0
         NFxFlg=           0 DoJE=T BraDBF=F KetDBF=T FulRan=T
         wScrn=  0.000000 ICntrl=       500 IOpCl=  0 I1Cent=   200000004 NGrid=           0
         NMat0=    1 NMatS0=      1 NMatT0=    0 NMatD0=    1 NMtDS0=    0 NMtDT0=    0
 Petite list used in FoFCou.
 Initial guess orbital symmetries:
 Alpha Orbitals:
       Occupied  (A1) (E) (E) (A1) (A1) (E) (E) (A1) (E) (E) (A1)
                 (E) (E) (A2) (E) (E) (A1) (E) (E) (A1) (A1) (E)
                 (E) (A1) (E) (E) (A1) (E) (E) (E) (E) (A2) (A1)
       Virtual   (A1) (E) (E) (A1) (E) (E) (A1) (E) (E) (A1) (E)
                 (E) (A2) (A1) (E) (E) (E) (E) (A1)
 Beta  Orbitals:
       Occupied  (A1) (E) (E) (A1) (A1) (E) (E) (A1) (E) (E) (A1)
                 (E) (E) (A2) (E) (E) (A1) (E) (E) (A1) (A1) (E)
                 (E) (A1) (E) (E) (A1) (E) (E) (E) (E) (A2)
       Virtual   (A1) (A1) (E) (E) (A1) (E) (E) (A1) (E) (E) (A1)
                 (E) (E) (A2) (A1) (E) (E) (E) (E) (A1)
 The electronic state of the initial guess is 2-A1.
 Initial guess <Sx>= 0.0000 <Sy>= 0.0000 <Sz>= 0.5000 <S**2>= 0.7500 S= 0.5000
 Keep R1 and R2 ints in memory in symmetry-blocked form, NReq=1772376.
 Requested convergence on RMS density matrix=1.00D-08 within 128 cycles.
 Requested convergence on MAX density matrix=1.00D-06.
 Requested convergence on             energy=1.00D-06.
 No special actions if energy rises.
 SCF Done:  E(UHF) =  -1612.75270259     A.U. after   13 cycles
            NFock= 13  Conv=0.86D-08     -V/T= 2.0012
 <Sx>= 0.0000 <Sy>= 0.0000 <Sz>= 0.5000 <S**2>= 0.7565 S= 0.5032
 <L.S>= 0.000000000000E+00
 Annihilation of the first spin contaminant:
 S**2 before annihilation     0.7565,   after     0.7500

 **********************************************************************

            Population analysis using the SCF Density.

 **********************************************************************

 Orbital symmetries:
 Alpha Orbitals:
       Occupied  (A1) (E) (E) (A1) (A1) (E) (E) (A1) (E) (E) (A1)
                 (E) (E) (E) (E) (A2) (A1) (A1) (E) (E) (A1) (E)
                 (E) (A1) (E) (E) (A1) (E) (E) (E) (E) (A2) (A1)
       Virtual   (A1) (E) (E) (A1) (A1) (E) (E) (E) (E) (A1) (E)
                 (E) (A2) (A1) (E) (E) (E) (E) (A1)
 Beta  Orbitals:
       Occupied  (A1) (E) (E) (A1) (A1) (E) (E) (A1) (E) (E) (E)
                 (E) (A2) (A1) (E) (E) (A1) (E) (E) (A1) (A1) (E)
                 (E) (A1) (E) (E) (A1) (E) (E) (E) (E) (A2)
       Virtual   (A1) (A1) (E) (E) (A1) (A1) (E) (E) (E) (E) (A1)
                 (E) (E) (A2) (A1) (E) (E) (E) (E) (A1)
 The electronic state is 2-A1.
 Alpha  occ. eigenvalues -- -103.92215-103.92200-103.92200 -58.02119 -10.31119
 Alpha  occ. eigenvalues --  -10.31071 -10.31071  -7.77585  -7.77582  -7.77582
 Alpha  occ. eigenvalues --   -7.77167  -7.77153  -7.77153  -7.77135  -7.77135
 Alpha  occ. eigenvalues --   -7.77134  -4.81849  -3.12023  -3.11649  -3.11649
 Alpha  occ. eigenvalues --   -0.89630  -0.88930  -0.88930  -0.41412  -0.32802
 Alpha  occ. eigenvalues --   -0.32802  -0.30330  -0.29193  -0.29193  -0.28490
 Alpha  occ. eigenvalues --   -0.28490  -0.28035  -0.15945
 Alpha virt. eigenvalues --    0.20933   0.25621   0.25621   0.41618   0.47187
 Alpha virt. eigenvalues --    0.49057   0.49057   0.89507   0.89507   0.92605
 Alpha virt. eigenvalues --    0.95533   0.95533   1.00638   1.02596   1.03326
 Alpha virt. eigenvalues --    1.03326   1.12536   1.12536   1.20890
  Beta  occ. eigenvalues -- -103.92058-103.92044-103.92044 -58.01540 -10.30939
  Beta  occ. eigenvalues --  -10.30891 -10.30891  -7.77110  -7.77092  -7.77092
  Beta  occ. eigenvalues --   -7.77048  -7.77048  -7.77042  -7.76952  -7.76949
  Beta  occ. eigenvalues --   -7.76949  -4.80621  -3.11225  -3.11225  -3.10949
  Beta  occ. eigenvalues --   -0.88329  -0.87633  -0.87633  -0.37324  -0.30682
  Beta  occ. eigenvalues --   -0.30682  -0.29327  -0.28332  -0.28332  -0.28022
  Beta  occ. eigenvalues --   -0.28022  -0.27754
  Beta virt. eigenvalues --    0.15527   0.22548   0.29065   0.29065   0.44414
  Beta virt. eigenvalues --    0.50939   0.51161   0.51161   0.89759   0.89759
  Beta virt. eigenvalues --    0.92984   0.95944   0.95944   1.00827   1.03464
  Beta virt. eigenvalues --    1.03867   1.03867   1.13710   1.13710   1.21829
     Alpha Molecular Orbital Coefficients:
                           1         2         3         4         5
                        (A1)--O   (E)--O    (E)--O    (A1)--O   (A1)--O
     Eigenvalues --  -103.92215-103.92200-103.92200 -58.02119 -10.31119
   1 1   Al 1S         -0.00001   0.00000  -0.00000   0.98856   0.00011
   2        2S          0.00036   0.00000   0.00000   0.04413  -0.00198
   3        2PX         0.00000   0.00003   0.00000   0.00000   0.00000
   4        2PY        -0.00000   0.00000   0.00003  -0.00000  -0.00000
   5        2PZ        -0.00002   0.00000  -0.00000  -0.00012   0.00013
   6        3S          0.00103   0.00000   0.00000  -0.01070  -0.00598
   7        3PX         0.00000  -0.00035   0.00000   0.00000   0.00000
   8        3PY         0.00000   0.00000  -0.00035   0.00000   0.00000
   9        3PZ         0.00016   0.00000   0.00000   0.00034  -0.00091
  10        4S         -0.00526   0.00000  -0.00000   0.00166   0.03017
  11        4PX         0.00000  -0.00273   0.00000   0.00000   0.00000
  12        4PY         0.00000   0.00000  -0.00273  -0.00000   0.00000
  13        4PZ         0.00149   0.00000   0.00000   0.00067  -0.00847
  14 2   Cl 1S          0.56920   0.00000   0.80498  -0.00002  -0.17663
  15        2S          0.03068   0.00000   0.04332   0.00010   0.56752
  16        2PX         0.00000   0.00006   0.00000   0.00000   0.00000
  17        2PY        -0.00013   0.00000  -0.00012  -0.00009  -0.00314
  18        2PZ        -0.00000   0.00000   0.00005   0.00001   0.00080
  19        3S         -0.01118   0.00000  -0.01515  -0.00119   0.08283
  20        3PX         0.00000  -0.00030   0.00000   0.00000   0.00000
  21        3PY         0.00055   0.00000   0.00046   0.00060  -0.00363
  22        3PZ         0.00004   0.00000  -0.00021  -0.00006  -0.00005
  23        4S          0.00719   0.00000   0.00901   0.00172  -0.04191
  24        4PX         0.00000   0.00080   0.00000   0.00000   0.00000
  25        4PY        -0.00157   0.00000  -0.00123  -0.00180   0.00899
  26        4PZ        -0.00005   0.00000   0.00054   0.00023   0.00020
  27 3   Cl 1S          0.56920   0.69713  -0.40249  -0.00002  -0.17663
  28        2S          0.03068   0.03752  -0.02166   0.00010   0.56752
  29        2PX        -0.00011  -0.00008   0.00008  -0.00008  -0.00272
  30        2PY         0.00006   0.00008   0.00001   0.00005   0.00157
  31        2PZ        -0.00000   0.00004  -0.00002   0.00001   0.00080
  32        3S         -0.01118  -0.01312   0.00758  -0.00119   0.08283
  33        3PX         0.00048   0.00027  -0.00033   0.00052  -0.00314
  34        3PY        -0.00028  -0.00033  -0.00011  -0.00030   0.00182
  35        3PZ         0.00004  -0.00018   0.00010  -0.00006  -0.00005
  36        4S          0.00719   0.00780  -0.00450   0.00172  -0.04191
  37        4PX        -0.00136  -0.00072   0.00088  -0.00156   0.00779
  38        4PY         0.00078   0.00088   0.00029   0.00090  -0.00450
  39        4PZ        -0.00005   0.00047  -0.00027   0.00023   0.00020
  40 4   Cl 1S          0.56920  -0.69713  -0.40249  -0.00002  -0.17663
  41        2S          0.03068  -0.03752  -0.02166   0.00010   0.56752
  42        2PX         0.00011  -0.00008  -0.00008   0.00008   0.00272
  43        2PY         0.00006  -0.00008   0.00001   0.00005   0.00157
  44        2PZ        -0.00000  -0.00004  -0.00002   0.00001   0.00080
  45        3S         -0.01118   0.01312   0.00758  -0.00119   0.08283
  46        3PX        -0.00048   0.00027   0.00033  -0.00052   0.00314
  47        3PY        -0.00028   0.00033  -0.00011  -0.00030   0.00182
  48        3PZ         0.00004   0.00018   0.00010  -0.00006  -0.00005
  49        4S          0.00719  -0.00780  -0.00450   0.00172  -0.04191
  50        4PX         0.00136  -0.00072  -0.00088   0.00156  -0.00779
  51        4PY         0.00078  -0.00088   0.00029   0.00090  -0.00450
  52        4PZ        -0.00005  -0.00047  -0.00027   0.00023   0.00020
                           6         7         8         9        10
                        (E)--O    (E)--O    (A1)--O   (E)--O    (E)--O
     Eigenvalues --   -10.31071 -10.31071  -7.77585  -7.77582  -7.77582
   1 1   Al 1S          0.00000  -0.00000  -0.00006   0.00000   0.00000
   2        2S          0.00000   0.00000   0.00046  -0.00000   0.00000
   3        2PX        -0.00019   0.00000   0.00000   0.00000   0.00015
   4        2PY         0.00000  -0.00019   0.00000   0.00015   0.00000
   5        2PZ         0.00000  -0.00000  -0.00009   0.00000   0.00000
   6        3S          0.00000   0.00000  -0.00210   0.00000   0.00000
   7        3PX         0.00196   0.00000   0.00000   0.00000  -0.00419
   8        3PY         0.00000   0.00196  -0.00000  -0.00419   0.00000
   9        3PZ         0.00000   0.00000   0.00170  -0.00000   0.00000
  10        4S          0.00000  -0.00000  -0.01306   0.00000   0.00000
  11        4PX         0.01575   0.00000   0.00000   0.00000  -0.00479
  12        4PY         0.00000   0.01575  -0.00000  -0.00479   0.00000
  13        4PZ         0.00000   0.00000   0.00226  -0.00000   0.00000
  14 2   Cl 1S          0.00000  -0.24985  -0.00129  -0.00177   0.00000
  15        2S          0.00000   0.80292   0.00448   0.00614   0.00000
  16        2PX        -0.00022   0.00000   0.00000   0.00000  -0.00924
  17        2PY         0.00000  -0.00467   0.52578   0.73931   0.00000
  18        2PZ         0.00000   0.00095  -0.19887  -0.29226   0.00000
  19        3S          0.00000   0.11362  -0.00379  -0.00374   0.00000
  20        3PX         0.00164   0.00000   0.00000   0.00000  -0.00114
  21        3PY         0.00000  -0.00340   0.04441   0.06195   0.00000
  22        3PZ         0.00000   0.00130  -0.01625  -0.02417   0.00000
  23        4S          0.00000  -0.05286   0.00710   0.00668   0.00000
  24        4PX        -0.00448   0.00000   0.00000   0.00000   0.00150
  25        4PY         0.00000   0.00722  -0.01701  -0.02185   0.00000
  26        4PZ         0.00000  -0.00308   0.00517   0.00831   0.00000
  27 3   Cl 1S         -0.21638   0.12493  -0.00129   0.00089  -0.00154
  28        2S          0.69535  -0.40146   0.00448  -0.00307   0.00532
  29        2PX        -0.00356   0.00193   0.45534  -0.32413   0.55217
  30        2PY         0.00193  -0.00133  -0.26289   0.17790  -0.32413
  31        2PZ         0.00082  -0.00047  -0.19887   0.14613  -0.25311
  32        3S          0.09840  -0.05681  -0.00379   0.00187  -0.00324
  33        3PX        -0.00214   0.00218   0.03846  -0.02732   0.04618
  34        3PY         0.00218   0.00038  -0.02221   0.01463  -0.02732
  35        3PZ         0.00112  -0.00065  -0.01625   0.01208  -0.02093
  36        4S         -0.04578   0.02643   0.00710  -0.00334   0.00578
  37        4PX         0.00430  -0.00507  -0.01473   0.01011  -0.01601
  38        4PY        -0.00507  -0.00155   0.00851  -0.00434   0.01011
  39        4PZ        -0.00266   0.00154   0.00517  -0.00416   0.00720
  40 4   Cl 1S          0.21638   0.12493  -0.00129   0.00089   0.00154
  41        2S         -0.69535  -0.40146   0.00448  -0.00307  -0.00532
  42        2PX        -0.00356  -0.00193  -0.45534   0.32413   0.55217
  43        2PY        -0.00193  -0.00133  -0.26289   0.17790   0.32413
  44        2PZ        -0.00082  -0.00047  -0.19887   0.14613   0.25311
  45        3S         -0.09840  -0.05681  -0.00379   0.00187   0.00324
  46        3PX        -0.00214  -0.00218  -0.03846   0.02732   0.04618
  47        3PY        -0.00218   0.00038  -0.02221   0.01463   0.02732
  48        3PZ        -0.00112  -0.00065  -0.01625   0.01208   0.02093
  49        4S          0.04578   0.02643   0.00710  -0.00334  -0.00578
  50        4PX         0.00430   0.00507   0.01473  -0.01011  -0.01601
  51        4PY         0.00507  -0.00155   0.00851  -0.00434  -0.01011
  52        4PZ         0.00266   0.00154   0.00517  -0.00416  -0.00720
                          11        12        13        14        15
                        (A1)--O   (E)--O    (E)--O    (E)--O    (E)--O
     Eigenvalues --    -7.77167  -7.77153  -7.77153  -7.77135  -7.77135
   1 1   Al 1S         -0.00002   0.00000  -0.00000   0.00000   0.00000
   2        2S          0.00038   0.00000   0.00000   0.00000  -0.00000
   3        2PX         0.00000   0.00003   0.00000  -0.00000   0.00000
   4        2PY        -0.00000   0.00000   0.00003   0.00000  -0.00000
   5        2PZ         0.00006   0.00000   0.00000   0.00000  -0.00000
   6        3S          0.00133   0.00000   0.00000   0.00000  -0.00000
   7        3PX         0.00000  -0.00105   0.00000  -0.00033   0.00000
   8        3PY         0.00000   0.00000  -0.00105   0.00000  -0.00033
   9        3PZ        -0.00081   0.00000  -0.00000   0.00000   0.00000
  10        4S         -0.00640   0.00000  -0.00000   0.00000   0.00000
  11        4PX         0.00000   0.00625   0.00000   0.00734   0.00000
  12        4PY        -0.00000   0.00000   0.00625   0.00000   0.00734
  13        4PZ         0.00828   0.00000   0.00000   0.00000  -0.00000
  14 2   Cl 1S         -0.00022   0.00000  -0.00022   0.00000   0.00017
  15        2S          0.00083   0.00000   0.00069   0.00000  -0.00063
  16        2PX         0.00000   0.37114   0.00000   0.70350   0.00000
  17        2PY         0.19875   0.00000   0.26259   0.00000  -0.12874
  18        2PZ         0.52612   0.00000   0.65276   0.00000  -0.34843
  19        3S         -0.00189   0.00000   0.00146   0.00000   0.00221
  20        3PX         0.00000   0.03065   0.00000   0.05724   0.00000
  21        3PY         0.01684   0.00000   0.02132   0.00000  -0.01074
  22        3PZ         0.04302   0.00000   0.05285   0.00000  -0.02762
  23        4S          0.00403   0.00000  -0.00392   0.00000  -0.00526
  24        4PX         0.00000  -0.01052   0.00000  -0.01808   0.00000
  25        4PY        -0.00703   0.00000  -0.00539   0.00000   0.00460
  26        4PZ        -0.01389   0.00000  -0.01606   0.00000   0.00692
  27 3   Cl 1S         -0.00022  -0.00019   0.00011   0.00014  -0.00008
  28        2S          0.00083   0.00060  -0.00035  -0.00055   0.00032
  29        2PX         0.17213   0.28972   0.04700   0.07932   0.36037
  30        2PY        -0.09938   0.04700   0.34400   0.36037   0.49544
  31        2PZ         0.52612   0.56531  -0.32638  -0.30175   0.17422
  32        3S         -0.00189   0.00127  -0.00073   0.00192  -0.00111
  33        3PX         0.01458   0.02366   0.00404   0.00625   0.02943
  34        3PY        -0.00842   0.00404   0.02832   0.02943   0.04024
  35        3PZ         0.04302   0.04577  -0.02643  -0.02392   0.01381
  36        4S          0.00403  -0.00339   0.00196  -0.00455   0.00263
  37        4PX        -0.00609  -0.00667  -0.00222  -0.00107  -0.00982
  38        4PY         0.00351  -0.00222  -0.00924  -0.00982  -0.01241
  39        4PZ        -0.01389  -0.01391   0.00803   0.00599  -0.00346
  40 4   Cl 1S         -0.00022   0.00019   0.00011  -0.00014  -0.00008
  41        2S          0.00083  -0.00060  -0.00035   0.00055   0.00032
  42        2PX        -0.17213   0.28972  -0.04700   0.07932  -0.36037
  43        2PY        -0.09938  -0.04700   0.34400  -0.36037   0.49544
  44        2PZ         0.52612  -0.56531  -0.32638   0.30175   0.17422
  45        3S         -0.00189  -0.00127  -0.00073  -0.00192  -0.00111
  46        3PX        -0.01458   0.02366  -0.00404   0.00625  -0.02943
  47        3PY        -0.00842  -0.00404   0.02832  -0.02943   0.04024
  48        3PZ         0.04302  -0.04577  -0.02643   0.02392   0.01381
  49        4S          0.00403   0.00339   0.00196   0.00455   0.00263
  50        4PX         0.00609  -0.00667   0.00222  -0.00107   0.00982
  51        4PY         0.00351   0.00222  -0.00924   0.00982  -0.01241
  52        4PZ        -0.01389   0.01391   0.00803  -0.00599  -0.00346
                          16        17        18        19        20
                        (A2)--O   (A1)--O   (A1)--O   (E)--O    (E)--O
     Eigenvalues --    -7.77134  -4.81849  -3.12023  -3.11649  -3.11649
   1 1   Al 1S          0.00000  -0.28428  -0.00146  -0.00000   0.00000
   2        2S          0.00000   1.01162   0.00559   0.00000   0.00000
   3        2PX        -0.00000   0.00000   0.00000   0.00000   0.97843
   4        2PY         0.00000  -0.00000  -0.00000   0.97843   0.00000
   5        2PZ         0.00000  -0.00408   0.97946   0.00000   0.00000
   6        3S          0.00000   0.08867  -0.00243  -0.00000   0.00000
   7        3PX         0.00000   0.00000   0.00000   0.00000   0.08923
   8        3PY         0.00000   0.00000  -0.00000   0.08923   0.00000
   9        3PZ         0.00000  -0.00297   0.08362  -0.00000   0.00000
  10        4S          0.00000  -0.02998  -0.00260   0.00000   0.00000
  11        4PX        -0.00000   0.00000   0.00000   0.00000  -0.02727
  12        4PY         0.00000   0.00000  -0.00000  -0.02727   0.00000
  13        4PZ         0.00000   0.00042  -0.02897   0.00000   0.00000
  14 2   Cl 1S          0.00000   0.00004  -0.00001   0.00003   0.00000
  15        2S          0.00000  -0.00018   0.00005  -0.00006   0.00000
  16        2PX         0.56252   0.00000   0.00000   0.00000  -0.00004
  17        2PY         0.00000   0.00029  -0.00005   0.00012   0.00000
  18        2PZ         0.00000  -0.00006   0.00003  -0.00001   0.00000
  19        3S          0.00000   0.00230  -0.00107   0.00274   0.00000
  20        3PX         0.04561   0.00000   0.00000   0.00000   0.00022
  21        3PY         0.00000  -0.00180   0.00037  -0.00101   0.00000
  22        3PZ         0.00000   0.00040  -0.00021   0.00022   0.00000
  23        4S          0.00000  -0.00139   0.00131  -0.00245   0.00000
  24        4PX        -0.01359   0.00000   0.00000   0.00000   0.00016
  25        4PY         0.00000   0.00581  -0.00290   0.01064   0.00000
  26        4PZ         0.00000  -0.00135   0.00183  -0.00265   0.00000
  27 3   Cl 1S         -0.00000   0.00004  -0.00001  -0.00002   0.00003
  28        2S          0.00000  -0.00018   0.00005   0.00003  -0.00005
  29        2PX        -0.28126   0.00025  -0.00004  -0.00007   0.00008
  30        2PY        -0.48716  -0.00014   0.00002  -0.00000  -0.00007
  31        2PZ         0.00000  -0.00006   0.00003   0.00000  -0.00001
  32        3S         -0.00000   0.00230  -0.00107  -0.00137   0.00237
  33        3PX        -0.02280  -0.00156   0.00032   0.00053  -0.00070
  34        3PY        -0.03950   0.00090  -0.00019  -0.00009   0.00053
  35        3PZ         0.00000   0.00040  -0.00021  -0.00011   0.00019
  36        4S          0.00000  -0.00139   0.00131   0.00122  -0.00212
  37        4PX         0.00679   0.00504  -0.00251  -0.00454   0.00802
  38        4PY         0.01177  -0.00291   0.00145   0.00278  -0.00454
  39        4PZ        -0.00000  -0.00135   0.00183   0.00132  -0.00229
  40 4   Cl 1S          0.00000   0.00004  -0.00001  -0.00002  -0.00003
  41        2S         -0.00000  -0.00018   0.00005   0.00003   0.00005
  42        2PX        -0.28126  -0.00025   0.00004   0.00007   0.00008
  43        2PY         0.48716  -0.00014   0.00002  -0.00000   0.00007
  44        2PZ        -0.00000  -0.00006   0.00003   0.00000   0.00001
  45        3S          0.00000   0.00230  -0.00107  -0.00137  -0.00237
  46        3PX        -0.02280   0.00156  -0.00032  -0.00053  -0.00070
  47        3PY         0.03950   0.00090  -0.00019  -0.00009  -0.00053
  48        3PZ        -0.00000   0.00040  -0.00021  -0.00011  -0.00019
  49        4S         -0.00000  -0.00139   0.00131   0.00122   0.00212
  50        4PX         0.00679  -0.00504   0.00251   0.00454   0.00802
  51        4PY        -0.01177  -0.00291   0.00145   0.00278   0.00454
  52        4PZ         0.00000  -0.00135   0.00183   0.00132   0.00229
                          21        22        23        24        25
                        (A1)--O   (E)--O    (E)--O    (A1)--O   (E)--O
     Eigenvalues --    -0.89630  -0.88930  -0.88930  -0.41412  -0.32802
   1 1   Al 1S          0.00993   0.00000   0.00000   0.04487   0.00000
   2        2S         -0.04564  -0.00000   0.00000  -0.21739   0.00000
   3        2PX         0.00000   0.00000  -0.02664   0.00000   0.08615
   4        2PY         0.00000  -0.02664   0.00000  -0.00000   0.00000
   5        2PZ         0.00895   0.00000   0.00000  -0.01004   0.00000
   6        3S          0.07698   0.00000   0.00000   0.39172   0.00000
   7        3PX         0.00000   0.00000   0.03980   0.00000  -0.17748
   8        3PY        -0.00000   0.03980   0.00000  -0.00000   0.00000
   9        3PZ        -0.01150  -0.00000   0.00000   0.04493   0.00000
  10        4S         -0.01338  -0.00000   0.00000   0.22375   0.00000
  11        4PX         0.00000   0.00000  -0.02310   0.00000  -0.02157
  12        4PY        -0.00000  -0.02310   0.00000   0.00000   0.00000
  13        4PZ         0.00919   0.00000   0.00000   0.04422   0.00000
  14 2   Cl 1S          0.04519   0.06489   0.00000  -0.01030   0.00000
  15        2S         -0.26594  -0.38197   0.00000   0.06202   0.00000
  16        2PX         0.00000   0.00000  -0.00043   0.00000   0.06851
  17        2PY         0.01242   0.01502   0.00000   0.10427   0.00000
  18        2PZ        -0.00342  -0.00449   0.00000  -0.03148   0.00000
  19        3S          0.32339   0.46554   0.00000  -0.08337   0.00000
  20        3PX         0.00000   0.00000   0.00026   0.00000  -0.14648
  21        3PY        -0.02435  -0.02959   0.00000  -0.21939   0.00000
  22        3PZ         0.00745   0.00940   0.00000   0.06759   0.00000
  23        4S          0.31254   0.45058   0.00000  -0.09410   0.00000
  24        4PX         0.00000   0.00000   0.00460   0.00000  -0.13247
  25        4PY        -0.02785  -0.03351   0.00000  -0.18536   0.00000
  26        4PZ         0.00450   0.00877   0.00000   0.04800   0.00000
  27 3   Cl 1S          0.04519  -0.03245   0.05620  -0.01030   0.00636
  28        2S         -0.26594   0.19098  -0.33079   0.06202  -0.03838
  29        2PX         0.01076  -0.00669   0.01116   0.09030  -0.11853
  30        2PY        -0.00621   0.00343  -0.00669  -0.05214   0.10799
  31        2PZ        -0.00342   0.00225  -0.00389  -0.03148   0.06937
  32        3S          0.32339  -0.23277   0.40317  -0.08337   0.05756
  33        3PX        -0.02109   0.01292  -0.02213  -0.19000   0.25077
  34        3PY         0.01218  -0.00720   0.01292   0.10969  -0.22935
  35        3PZ         0.00745  -0.00470   0.00814   0.06759  -0.14889
  36        4S          0.31254  -0.22529   0.39021  -0.09410   0.04333
  37        4PX        -0.02411   0.01650  -0.02398  -0.16052   0.22912
  38        4PY         0.01392  -0.00493   0.01650   0.09268  -0.20877
  39        4PZ         0.00450  -0.00439   0.00760   0.04800  -0.13038
  40 4   Cl 1S          0.04519  -0.03245  -0.05620  -0.01030  -0.00636
  41        2S         -0.26594   0.19098   0.33079   0.06202   0.03838
  42        2PX        -0.01076   0.00669   0.01116  -0.09030  -0.11853
  43        2PY        -0.00621   0.00343   0.00669  -0.05214  -0.10799
  44        2PZ        -0.00342   0.00225   0.00389  -0.03148  -0.06937
  45        3S          0.32339  -0.23277  -0.40317  -0.08337  -0.05756
  46        3PX         0.02109  -0.01292  -0.02213   0.19000   0.25077
  47        3PY         0.01218  -0.00720  -0.01292   0.10969   0.22935
  48        3PZ         0.00745  -0.00470  -0.00814   0.06759   0.14889
  49        4S          0.31254  -0.22529  -0.39021  -0.09410  -0.04333
  50        4PX         0.02411  -0.01650  -0.02398   0.16052   0.22912
  51        4PY         0.01392  -0.00493  -0.01650   0.09268   0.20877
  52        4PZ         0.00450  -0.00439  -0.00760   0.04800   0.13038
                          26        27        28        29        30
                        (E)--O    (A1)--O   (E)--O    (E)--O    (E)--O
     Eigenvalues --    -0.32802  -0.30330  -0.29193  -0.29193  -0.28490
   1 1   Al 1S          0.00000   0.00226   0.00000   0.00000   0.00000
   2        2S         -0.00000  -0.01004   0.00000  -0.00000   0.00000
   3        2PX         0.00000   0.00000   0.00084   0.00000   0.01180
   4        2PY         0.08615  -0.00000   0.00000   0.00084   0.00000
   5        2PZ        -0.00000  -0.05071   0.00000   0.00000   0.00000
   6        3S          0.00000   0.03273   0.00000  -0.00000   0.00000
   7        3PX         0.00000   0.00000  -0.00441   0.00000  -0.02995
   8        3PY        -0.17748   0.00000   0.00000  -0.00441   0.00000
   9        3PZ         0.00000   0.10698   0.00000  -0.00000   0.00000
  10        4S          0.00000   0.01376   0.00000   0.00000   0.00000
  11        4PX         0.00000   0.00000   0.06519   0.00000   0.07036
  12        4PY        -0.02157   0.00000   0.00000   0.06519   0.00000
  13        4PZ         0.00000   0.11031   0.00000  -0.00000   0.00000
  14 2   Cl 1S          0.00734   0.00070   0.00000   0.00046   0.00000
  15        2S         -0.04432  -0.00430   0.00000  -0.00257   0.00000
  16        2PX         0.00000   0.00000  -0.17869   0.00000  -0.10771
  17        2PY        -0.18088  -0.05101   0.00000  -0.01572   0.00000
  18        2PZ         0.08010  -0.14170   0.00000   0.13045   0.00000
  19        3S          0.06646   0.00440   0.00000   0.01451   0.00000
  20        3PX         0.00000   0.00000   0.38233   0.00000   0.23232
  21        3PY         0.38318   0.10910   0.00000   0.03255   0.00000
  22        3PZ        -0.17192   0.30459   0.00000  -0.27788   0.00000
  23        4S          0.05003   0.01431   0.00000  -0.03516   0.00000
  24        4PX         0.00000   0.00000   0.35380   0.00000   0.20390
  25        4PY         0.34965   0.09450   0.00000   0.04391   0.00000
  26        4PZ        -0.15055   0.26975   0.00000  -0.27085   0.00000
  27 3   Cl 1S         -0.00367   0.00070   0.00040  -0.00023   0.00127
  28        2S          0.02216  -0.00430  -0.00223   0.00129  -0.00756
  29        2PX         0.10799  -0.04418  -0.05646  -0.07057  -0.10962
  30        2PY         0.00617   0.02550  -0.07057  -0.13795   0.00110
  31        2PZ        -0.04005  -0.14170   0.11297  -0.06523  -0.14003
  32        3S         -0.03323   0.00440   0.01256  -0.00725   0.02580
  33        3PX        -0.22935   0.09448   0.12000   0.15146   0.23202
  34        3PY        -0.01406  -0.05455   0.15146   0.29488   0.00017
  35        3PZ         0.08596   0.30459  -0.24065   0.13894   0.30042
  36        4S         -0.02501   0.01431  -0.03045   0.01758  -0.03531
  37        4PX        -0.20877   0.08184   0.12138   0.13419   0.23233
  38        4PY        -0.01194  -0.04725   0.13419   0.27632  -0.01642
  39        4PZ         0.07528   0.26975  -0.23456   0.13542   0.27624
  40 4   Cl 1S         -0.00367   0.00070  -0.00040  -0.00023  -0.00127
  41        2S          0.02216  -0.00430   0.00223   0.00129   0.00756
  42        2PX        -0.10799   0.04418  -0.05646   0.07057  -0.10962
  43        2PY         0.00617   0.02550   0.07057  -0.13795  -0.00110
  44        2PZ        -0.04005  -0.14170  -0.11297  -0.06523   0.14003
  45        3S         -0.03323   0.00440  -0.01256  -0.00725  -0.02580
  46        3PX         0.22935  -0.09448   0.12000  -0.15146   0.23202
  47        3PY        -0.01406  -0.05455  -0.15146   0.29488  -0.00017
  48        3PZ         0.08596   0.30459   0.24065   0.13894  -0.30042
  49        4S         -0.02501   0.01431   0.03045   0.01758   0.03531
  50        4PX         0.20877  -0.08184   0.12138  -0.13419   0.23233
  51        4PY        -0.01194  -0.04725  -0.13419   0.27632   0.01642
  52        4PZ         0.07528   0.26975   0.23456   0.13542  -0.27624
                          31        32        33        34        35
                        (E)--O    (A2)--O   (A1)--O   (A1)--V   (E)--V
     Eigenvalues --    -0.28490  -0.28035  -0.15945   0.20933   0.25621
   1 1   Al 1S          0.00000   0.00000   0.04003  -0.03233   0.00000
   2        2S         -0.00000   0.00000  -0.20628   0.16672   0.00000
   3        2PX         0.00000  -0.00000   0.00000   0.00000  -0.15381
   4        2PY         0.01180   0.00000  -0.00000   0.00000   0.00000
   5        2PZ        -0.00000   0.00000  -0.11827  -0.13879   0.00000
   6        3S          0.00000   0.00000   0.34428  -0.28669   0.00000
   7        3PX         0.00000   0.00000   0.00000   0.00000   0.32580
   8        3PY        -0.02995   0.00000   0.00000  -0.00000   0.00000
   9        3PZ         0.00000   0.00000   0.30419   0.29569   0.00000
  10        4S          0.00000   0.00000   0.58759  -0.50271   0.00000
  11        4PX         0.00000  -0.00000   0.00000   0.00000   1.23876
  12        4PY         0.07036   0.00000  -0.00000  -0.00000   0.00000
  13        4PZ         0.00000   0.00000   0.21834   0.78482   0.00000
  14 2   Cl 1S          0.00147   0.00000  -0.00448   0.00922   0.00000
  15        2S         -0.00872   0.00000   0.02770  -0.05718   0.00000
  16        2PX         0.00000  -0.15980   0.00000   0.00000   0.05990
  17        2PY        -0.11025   0.00000  -0.08756   0.07344   0.00000
  18        2PZ        -0.16170   0.00000   0.06381   0.02796   0.00000
  19        3S          0.02979   0.00000  -0.01847   0.06856   0.00000
  20        3PX         0.00000   0.34292   0.00000   0.00000  -0.12800
  21        3PY         0.23192   0.00000   0.18651  -0.15616   0.00000
  22        3PZ         0.34690   0.00000  -0.13586  -0.05900   0.00000
  23        4S         -0.04077   0.00000  -0.12100   0.20526   0.00000
  24        4PX         0.00000   0.31756   0.00000   0.00000  -0.23297
  25        4PY         0.24181   0.00000   0.22769  -0.26864   0.00000
  26        4PZ         0.31897   0.00000  -0.16848  -0.10216   0.00000
  27 3   Cl 1S         -0.00073  -0.00000  -0.00448   0.00922  -0.01241
  28        2S          0.00436   0.00000   0.02770  -0.05718   0.07821
  29        2PX         0.00110   0.07990  -0.07583   0.06360  -0.02754
  30        2PY        -0.10835   0.13839   0.04378  -0.03672   0.05049
  31        2PZ         0.08085   0.00000   0.06381   0.02796   0.02745
  32        3S         -0.01490  -0.00000  -0.01847   0.06856  -0.04364
  33        3PX         0.00017  -0.17146   0.16153  -0.13524   0.04990
  34        3PY         0.23222  -0.29698  -0.09326   0.07808  -0.10271
  35        3PZ        -0.17345  -0.00000  -0.13586  -0.05900  -0.05924
  36        4S          0.02039   0.00000  -0.12100   0.20526  -0.51420
  37        4PX        -0.01642  -0.15878   0.19718  -0.23265   0.21916
  38        4PY         0.21338  -0.27502  -0.11384   0.13432  -0.26104
  39        4PZ        -0.15948  -0.00000  -0.16848  -0.10216  -0.12414
  40 4   Cl 1S         -0.00073   0.00000  -0.00448   0.00922   0.01241
  41        2S          0.00436  -0.00000   0.02770  -0.05718  -0.07821
  42        2PX        -0.00110   0.07990   0.07583  -0.06360  -0.02754
  43        2PY        -0.10835  -0.13839   0.04378  -0.03672  -0.05049
  44        2PZ         0.08085  -0.00000   0.06381   0.02796  -0.02745
  45        3S         -0.01490   0.00000  -0.01847   0.06856   0.04364
  46        3PX        -0.00017  -0.17146  -0.16153   0.13524   0.04990
  47        3PY         0.23222   0.29698  -0.09326   0.07808   0.10271
  48        3PZ        -0.17345   0.00000  -0.13586  -0.05900   0.05924
  49        4S          0.02039  -0.00000  -0.12100   0.20526   0.51420
  50        4PX         0.01642  -0.15878  -0.19718   0.23265   0.21916
  51        4PY         0.21338   0.27502  -0.11384   0.13432   0.26104
  52        4PZ        -0.15948   0.00000  -0.16848  -0.10216   0.12414
                          36        37        38        39        40
                        (E)--V    (A1)--V   (A1)--V   (E)--V    (E)--V
     Eigenvalues --     0.25621   0.41618   0.47187   0.49057   0.49057
   1 1   Al 1S         -0.00000  -0.04513   0.01823   0.00000   0.00000
   2        2S          0.00000   0.04301  -0.03067   0.00000   0.00000
   3        2PX         0.00000   0.00000   0.00000  -0.31367   0.00000
   4        2PY        -0.15381  -0.00000  -0.00000   0.00000  -0.31367
   5        2PZ        -0.00000   0.08989   0.28392   0.00000  -0.00000
   6        3S         -0.00000  -1.71416   0.58948   0.00000   0.00000
   7        3PX         0.00000   0.00000   0.00000   1.40346   0.00000
   8        3PY         0.32580   0.00000   0.00000   0.00000   1.40346
   9        3PZ         0.00000  -0.38597  -1.27843   0.00000   0.00000
  10        4S          0.00000   2.17957  -0.68598   0.00000  -0.00000
  11        4PX         0.00000   0.00000   0.00000  -1.39690   0.00000
  12        4PY         1.23876  -0.00000  -0.00000   0.00000  -1.39690
  13        4PZ         0.00000   0.17140   1.28355   0.00000  -0.00000
  14 2   Cl 1S         -0.01433  -0.00684   0.00117   0.00000  -0.00195
  15        2S          0.09031   0.04371  -0.00807   0.00000   0.01065
  16        2PX         0.00000   0.00000   0.00000  -0.01656   0.00000
  17        2PY        -0.05669   0.01137  -0.02041   0.00000  -0.06605
  18        2PZ         0.03170  -0.00941   0.02149   0.00000   0.01140
  19        3S         -0.05039  -0.03189  -0.01307   0.00000  -0.08378
  20        3PX         0.00000   0.00000   0.00000   0.03593   0.00000
  21        3PY         0.10920  -0.04154   0.05377   0.00000   0.16043
  22        3PZ        -0.06840   0.02944  -0.04981   0.00000  -0.02921
  23        4S         -0.59374  -0.32986   0.19976   0.00000   0.42313
  24        4PX         0.00000   0.00000   0.00000   0.12221   0.00000
  25        4PY         0.36987   0.17897  -0.05907   0.00000   0.05504
  26        4PZ        -0.14334  -0.05932  -0.09640   0.00000   0.01975
  27 3   Cl 1S          0.00716  -0.00684   0.00117  -0.00169   0.00097
  28        2S         -0.04515   0.04371  -0.00807   0.00922  -0.00533
  29        2PX         0.05049   0.00984  -0.01768  -0.05367   0.02143
  30        2PY         0.03075  -0.00568   0.01021   0.02143  -0.02893
  31        2PZ        -0.01585  -0.00941   0.02149   0.00988  -0.00570
  32        3S          0.02520  -0.03189  -0.01307  -0.07256   0.04189
  33        3PX        -0.10271  -0.03598   0.04657   0.12930  -0.05391
  34        3PY        -0.06870   0.02077  -0.02689  -0.05391   0.06705
  35        3PZ         0.03420   0.02944  -0.04981  -0.02530   0.01460
  36        4S          0.29687  -0.32986   0.19976   0.36644  -0.21156
  37        4PX        -0.26104   0.15499  -0.05116   0.07183   0.02909
  38        4PY        -0.08226  -0.08949   0.02954   0.02909   0.10542
  39        4PZ         0.07167  -0.05932  -0.09640   0.01711  -0.00988
  40 4   Cl 1S          0.00716  -0.00684   0.00117   0.00169   0.00097
  41        2S         -0.04515   0.04371  -0.00807  -0.00922  -0.00533
  42        2PX        -0.05049  -0.00984   0.01768  -0.05367  -0.02143
  43        2PY         0.03075  -0.00568   0.01021  -0.02143  -0.02893
  44        2PZ        -0.01585  -0.00941   0.02149  -0.00988  -0.00570
  45        3S          0.02520  -0.03189  -0.01307   0.07256   0.04189
  46        3PX         0.10271   0.03598  -0.04657   0.12930   0.05391
  47        3PY        -0.06870   0.02077  -0.02689   0.05391   0.06705
  48        3PZ         0.03420   0.02944  -0.04981   0.02530   0.01460
  49        4S          0.29687  -0.32986   0.19976  -0.36644  -0.21156
  50        4PX         0.26104  -0.15499   0.05116   0.07183  -0.02909
  51        4PY        -0.08226  -0.08949   0.02954  -0.02909   0.10542
  52        4PZ         0.07167  -0.05932  -0.09640  -0.01711  -0.00988
                          41        42        43        44        45
                        (E)--V    (E)--V    (A1)--V   (E)--V    (E)--V
     Eigenvalues --     0.89507   0.89507   0.92605   0.95533   0.95533
   1 1   Al 1S         -0.00000   0.00000   0.00363   0.00000   0.00000
   2        2S         -0.00000   0.00000   0.03313  -0.00000   0.00000
   3        2PX         0.00000   0.01005   0.00000   0.00000  -0.00272
   4        2PY         0.01005   0.00000  -0.00000  -0.00272   0.00000
   5        2PZ        -0.00000   0.00000  -0.00206  -0.00000   0.00000
   6        3S         -0.00000   0.00000   0.40475   0.00000   0.00000
   7        3PX         0.00000   0.00157   0.00000   0.00000   0.04249
   8        3PY         0.00157   0.00000   0.00000   0.04249   0.00000
   9        3PZ         0.00000   0.00000  -0.02542   0.00000   0.00000
  10        4S          0.00000   0.00000  -0.58033   0.00000   0.00000
  11        4PX         0.00000  -0.24605   0.00000   0.00000  -0.15396
  12        4PY        -0.24605   0.00000  -0.00000  -0.15396   0.00000
  13        4PZ        -0.00000   0.00000   0.05505  -0.00000   0.00000
  14 2   Cl 1S         -0.04830   0.00000  -0.03043  -0.00770   0.00000
  15        2S          0.29463   0.00000   0.18549   0.04675   0.00000
  16        2PX         0.00000  -0.12638   0.00000   0.00000   0.11328
  17        2PY         0.09652   0.00000   0.13250  -0.03384   0.00000
  18        2PZ        -0.03138   0.00000   0.02824  -0.26239   0.00000
  19        3S         -1.30783   0.00000  -0.83865  -0.22039   0.00000
  20        3PX         0.00000   0.42803   0.00000   0.00000  -0.39564
  21        3PY        -0.32703   0.00000  -0.45423   0.11681   0.00000
  22        3PZ         0.10503   0.00000  -0.09700   0.91053   0.00000
  23        4S          1.33494   0.00000   0.89168   0.26444   0.00000
  24        4PX         0.00000  -0.35346   0.00000   0.00000   0.39525
  25        4PY         0.25280   0.00000   0.37551  -0.12423   0.00000
  26        4PZ        -0.07406   0.00000   0.09483  -0.85703   0.00000
  27 3   Cl 1S          0.02415  -0.04183  -0.03043   0.00385  -0.00667
  28        2S         -0.14731   0.25516   0.18549  -0.02338   0.04049
  29        2PX        -0.09652   0.04080   0.11475   0.06370   0.00294
  30        2PY        -0.07065  -0.09652  -0.06625   0.07650   0.06370
  31        2PZ         0.01569  -0.02718   0.02824   0.13119  -0.22723
  32        3S          0.65392  -1.13262  -0.83865   0.11020  -0.19087
  33        3PX         0.32695  -0.13826  -0.39338  -0.22190  -0.01131
  34        3PY         0.23927   0.32695   0.22712  -0.26753  -0.22190
  35        3PZ        -0.05252   0.09096  -0.09700  -0.45527   0.78854
  36        4S         -0.66747   1.15609   0.89168  -0.13222   0.22901
  37        4PX        -0.26252   0.10123   0.32520   0.22494   0.00564
  38        4PY        -0.20190  -0.26252  -0.18776   0.26538   0.22494
  39        4PZ         0.03703  -0.06414   0.09483   0.42852  -0.74221
  40 4   Cl 1S          0.02415   0.04183  -0.03043   0.00385   0.00667
  41        2S         -0.14731  -0.25516   0.18549  -0.02338  -0.04049
  42        2PX         0.09652   0.04080  -0.11475  -0.06370   0.00294
  43        2PY        -0.07065   0.09652  -0.06625   0.07650  -0.06370
  44        2PZ         0.01569   0.02718   0.02824   0.13119   0.22723
  45        3S          0.65392   1.13262  -0.83865   0.11020   0.19087
  46        3PX        -0.32695  -0.13826   0.39338   0.22190  -0.01131
  47        3PY         0.23927  -0.32695   0.22712  -0.26753   0.22190
  48        3PZ        -0.05252  -0.09096  -0.09700  -0.45527  -0.78854
  49        4S         -0.66747  -1.15609   0.89168  -0.13222  -0.22901
  50        4PX         0.26252   0.10123  -0.32520  -0.22494   0.00564
  51        4PY        -0.20190   0.26252  -0.18776   0.26538  -0.22494
  52        4PZ         0.03703   0.06414   0.09483   0.42852   0.74221
                          46        47        48        49        50
                        (A2)--V   (A1)--V   (E)--V    (E)--V    (E)--V
     Eigenvalues --     1.00638   1.02596   1.03326   1.03326   1.12536
   1 1   Al 1S          0.00000  -0.00719   0.00000  -0.00000   0.00000
   2        2S          0.00000   0.01764   0.00000  -0.00000   0.00000
   3        2PX         0.00000   0.00000  -0.03605   0.00000   0.05159
   4        2PY         0.00000   0.00000   0.00000  -0.03605   0.00000
   5        2PZ         0.00000  -0.01428   0.00000  -0.00000   0.00000
   6        3S          0.00000  -0.25299   0.00000  -0.00000   0.00000
   7        3PX        -0.00000   0.00000   0.34387   0.00000  -0.31522
   8        3PY         0.00000  -0.00000   0.00000   0.34387   0.00000
   9        3PZ         0.00000   0.14216   0.00000   0.00000   0.00000
  10        4S          0.00000  -0.00997   0.00000   0.00000   0.00000
  11        4PX         0.00000   0.00000  -0.40777   0.00000  -0.80276
  12        4PY         0.00000   0.00000   0.00000  -0.40777   0.00000
  13        4PZ         0.00000  -0.40939   0.00000  -0.00000   0.00000
  14 2   Cl 1S          0.00000  -0.00109   0.00000  -0.00183   0.00000
  15        2S          0.00000   0.00667   0.00000   0.01089   0.00000
  16        2PX        -0.20522   0.00000   0.18121   0.00000   0.15025
  17        2PY         0.00000  -0.04448   0.00000   0.22061   0.00000
  18        2PZ         0.00000   0.19940   0.00000   0.05312   0.00000
  19        3S          0.00000  -0.03931   0.00000  -0.05900   0.00000
  20        3PX         0.71881   0.00000  -0.64202   0.00000  -0.55435
  21        3PY         0.00000   0.16146   0.00000  -0.78284   0.00000
  22        3PZ         0.00000  -0.70906   0.00000  -0.18550   0.00000
  23        4S          0.00000   0.02376   0.00000   0.16011   0.00000
  24        4PX        -0.70244   0.00000   0.67703   0.00000   0.69860
  25        4PY         0.00000  -0.17142   0.00000   0.78965   0.00000
  26        4PZ         0.00000   0.75528   0.00000   0.18850   0.00000
  27 3   Cl 1S          0.00000  -0.00109  -0.00158   0.00091  -0.02780
  28        2S         -0.00000   0.00667   0.00943  -0.00544   0.16800
  29        2PX         0.10261  -0.03852   0.21076  -0.01706  -0.08459
  30        2PY         0.17773   0.02224  -0.01706   0.19106   0.13559
  31        2PZ        -0.00000   0.19940   0.04600  -0.02656   0.09290
  32        3S          0.00000  -0.03931  -0.05110   0.02950  -0.91313
  33        3PX        -0.35941   0.13983  -0.74763   0.06097   0.31767
  34        3PY        -0.62251  -0.08073   0.06097  -0.67723  -0.50346
  35        3PZ         0.00000  -0.70906  -0.16065   0.09275  -0.34272
  36        4S         -0.00000   0.02376   0.13866  -0.08006   1.22713
  37        4PX         0.35122  -0.14845   0.76149  -0.04876  -0.47048
  38        4PY         0.60833   0.08571  -0.04876   0.70519   0.67497
  39        4PZ        -0.00000   0.75528   0.16325  -0.09425   0.43616
  40 4   Cl 1S         -0.00000  -0.00109   0.00158   0.00091   0.02780
  41        2S          0.00000   0.00667  -0.00943  -0.00544  -0.16800
  42        2PX         0.10261   0.03852   0.21076   0.01706  -0.08459
  43        2PY        -0.17773   0.02224   0.01706   0.19106  -0.13559
  44        2PZ         0.00000   0.19940  -0.04600  -0.02656  -0.09290
  45        3S         -0.00000  -0.03931   0.05110   0.02950   0.91313
  46        3PX        -0.35941  -0.13983  -0.74763  -0.06097   0.31767
  47        3PY         0.62251  -0.08073  -0.06097  -0.67723   0.50346
  48        3PZ        -0.00000  -0.70906   0.16065   0.09275   0.34272
  49        4S          0.00000   0.02376  -0.13866  -0.08006  -1.22713
  50        4PX         0.35122   0.14845   0.76149   0.04876  -0.47048
  51        4PY        -0.60833   0.08571   0.04876   0.70519  -0.67497
  52        4PZ         0.00000   0.75528  -0.16325  -0.09425  -0.43616
                          51        52
                        (E)--V    (A1)--V
     Eigenvalues --     1.12536   1.20890
   1 1   Al 1S         -0.00000   0.01409
   2        2S          0.00000  -0.12353
   3        2PX         0.00000   0.00000
   4        2PY         0.05159   0.00000
   5        2PZ        -0.00000   0.02293
   6        3S         -0.00000  -0.06699
   7        3PX         0.00000   0.00000
   8        3PY        -0.31522  -0.00000
   9        3PZ         0.00000  -0.11374
  10        4S         -0.00000   1.42511
  11        4PX         0.00000   0.00000
  12        4PY        -0.80276  -0.00000
  13        4PZ        -0.00000  -0.51365
  14 2   Cl 1S         -0.03210   0.02773
  15        2S          0.19399  -0.16758
  16        2PX         0.00000   0.00000
  17        2PY        -0.16287   0.15315
  18        2PZ         0.10727   0.03548
  19        3S         -1.05439   0.93768
  20        3PX         0.00000   0.00000
  21        3PY         0.60835  -0.58529
  22        3PZ        -0.39573  -0.12958
  23        4S          1.41697  -1.27238
  24        4PX         0.00000   0.00000
  25        4PY        -0.86017   0.88758
  26        4PZ         0.50363   0.14452
  27 3   Cl 1S          0.01605   0.02773
  28        2S         -0.09700  -0.16758
  29        2PX         0.13559   0.13263
  30        2PY         0.07197  -0.07657
  31        2PZ        -0.05364   0.03548
  32        3S          0.52719   0.93768
  33        3PX        -0.50346  -0.50687
  34        3PY        -0.26368   0.29264
  35        3PZ         0.19787  -0.12958
  36        4S         -0.70849  -1.27238
  37        4PX         0.67497   0.76867
  38        4PY         0.30891  -0.44379
  39        4PZ        -0.25182   0.14452
  40 4   Cl 1S          0.01605   0.02773
  41        2S         -0.09700  -0.16758
  42        2PX        -0.13559  -0.13263
  43        2PY         0.07197  -0.07657
  44        2PZ        -0.05364   0.03548
  45        3S          0.52719   0.93768
  46        3PX         0.50346   0.50687
  47        3PY        -0.26368   0.29264
  48        3PZ         0.19787  -0.12958
  49        4S         -0.70849  -1.27238
  50        4PX        -0.67497  -0.76867
  51        4PY         0.30891  -0.44379
  52        4PZ        -0.25182   0.14452
     Beta Molecular Orbital Coefficients:
                           1         2         3         4         5
                        (A1)--O   (E)--O    (E)--O    (A1)--O   (A1)--O
     Eigenvalues --  -103.92058-103.92044-103.92044 -58.01540 -10.30939
   1 1   Al 1S         -0.00001   0.00000  -0.00000   0.98855   0.00011
   2        2S          0.00036   0.00000   0.00000   0.04416  -0.00200
   3        2PX         0.00000   0.00003   0.00000   0.00000   0.00000
   4        2PY        -0.00000   0.00000   0.00003  -0.00000  -0.00000
   5        2PZ        -0.00002   0.00000  -0.00000  -0.00013   0.00013
   6        3S          0.00103   0.00000   0.00000  -0.01071  -0.00593
   7        3PX         0.00000  -0.00035   0.00000   0.00000   0.00000
   8        3PY         0.00000   0.00000  -0.00035   0.00000   0.00000
   9        3PZ         0.00016   0.00000   0.00000   0.00036  -0.00090
  10        4S         -0.00526   0.00000  -0.00000   0.00167   0.03019
  11        4PX         0.00000  -0.00273   0.00000   0.00000   0.00000
  12        4PY         0.00000   0.00000  -0.00273  -0.00000   0.00000
  13        4PZ         0.00149   0.00000   0.00000   0.00066  -0.00847
  14 2   Cl 1S          0.56920   0.00000   0.80498  -0.00002  -0.17664
  15        2S          0.03067   0.00000   0.04331   0.00010   0.56756
  16        2PX         0.00000   0.00006   0.00000   0.00000   0.00000
  17        2PY        -0.00013   0.00000  -0.00012  -0.00009  -0.00275
  18        2PZ        -0.00000   0.00000   0.00005   0.00001   0.00053
  19        3S         -0.01117   0.00000  -0.01514  -0.00119   0.08277
  20        3PX         0.00000  -0.00030   0.00000   0.00000   0.00000
  21        3PY         0.00055   0.00000   0.00045   0.00060  -0.00362
  22        3PZ         0.00004   0.00000  -0.00020  -0.00006  -0.00006
  23        4S          0.00719   0.00000   0.00900   0.00172  -0.04194
  24        4PX         0.00000   0.00080   0.00000   0.00000   0.00000
  25        4PY        -0.00157   0.00000  -0.00122  -0.00180   0.00900
  26        4PZ        -0.00005   0.00000   0.00054   0.00022   0.00021
  27 3   Cl 1S          0.56920   0.69713  -0.40249  -0.00002  -0.17664
  28        2S          0.03067   0.03751  -0.02166   0.00010   0.56756
  29        2PX        -0.00011  -0.00008   0.00008  -0.00008  -0.00238
  30        2PY         0.00006   0.00008   0.00001   0.00005   0.00137
  31        2PZ        -0.00000   0.00004  -0.00002   0.00001   0.00053
  32        3S         -0.01117  -0.01312   0.00757  -0.00119   0.08277
  33        3PX         0.00048   0.00027  -0.00033   0.00052  -0.00313
  34        3PY        -0.00028  -0.00033  -0.00011  -0.00030   0.00181
  35        3PZ         0.00004  -0.00018   0.00010  -0.00006  -0.00006
  36        4S          0.00719   0.00780  -0.00450   0.00172  -0.04194
  37        4PX        -0.00136  -0.00072   0.00088  -0.00156   0.00779
  38        4PY         0.00078   0.00088   0.00029   0.00090  -0.00450
  39        4PZ        -0.00005   0.00046  -0.00027   0.00022   0.00021
  40 4   Cl 1S          0.56920  -0.69713  -0.40249  -0.00002  -0.17664
  41        2S          0.03067  -0.03751  -0.02166   0.00010   0.56756
  42        2PX         0.00011  -0.00008  -0.00008   0.00008   0.00238
  43        2PY         0.00006  -0.00008   0.00001   0.00005   0.00137
  44        2PZ        -0.00000  -0.00004  -0.00002   0.00001   0.00053
  45        3S         -0.01117   0.01312   0.00757  -0.00119   0.08277
  46        3PX        -0.00048   0.00027   0.00033  -0.00052   0.00313
  47        3PY        -0.00028   0.00033  -0.00011  -0.00030   0.00181
  48        3PZ         0.00004   0.00018   0.00010  -0.00006  -0.00006
  49        4S          0.00719  -0.00780  -0.00450   0.00172  -0.04194
  50        4PX         0.00136  -0.00072  -0.00088   0.00156  -0.00779
  51        4PY         0.00078  -0.00088   0.00029   0.00090  -0.00450
  52        4PZ        -0.00005  -0.00046  -0.00027   0.00022   0.00021
                           6         7         8         9        10
                        (E)--O    (E)--O    (A1)--O   (E)--O    (E)--O
     Eigenvalues --   -10.30891 -10.30891  -7.77110  -7.77092  -7.77092
   1 1   Al 1S         -0.00000   0.00000  -0.00005   0.00000  -0.00000
   2        2S          0.00000   0.00000   0.00059   0.00000   0.00000
   3        2PX         0.00000  -0.00019   0.00000   0.00011   0.00000
   4        2PY        -0.00019   0.00000  -0.00000   0.00000   0.00011
   5        2PZ        -0.00000   0.00000  -0.00000   0.00000  -0.00000
   6        3S          0.00000   0.00000  -0.00019   0.00000  -0.00000
   7        3PX         0.00000   0.00196   0.00000  -0.00320   0.00000
   8        3PY         0.00196   0.00000   0.00000   0.00000  -0.00320
   9        3PZ         0.00000   0.00000   0.00035   0.00000   0.00000
  10        4S         -0.00000   0.00000  -0.01293   0.00000  -0.00000
  11        4PX         0.00000   0.01576   0.00000  -0.00060   0.00000
  12        4PY         0.01576   0.00000  -0.00000   0.00000  -0.00060
  13        4PZ         0.00000   0.00000   0.00803   0.00000   0.00000
  14 2   Cl 1S         -0.24986   0.00000  -0.00088   0.00000  -0.00119
  15        2S          0.80297   0.00000   0.00314   0.00000   0.00414
  16        2PX         0.00000  -0.00022   0.00000   0.04704   0.00000
  17        2PY        -0.00410   0.00000   0.47059   0.00000   0.67733
  18        2PZ         0.00057   0.00000   0.30760   0.00000   0.41411
  19        3S          0.11354   0.00000  -0.00383   0.00000  -0.00197
  20        3PX         0.00000   0.00165   0.00000   0.00392   0.00000
  21        3PY        -0.00339   0.00000   0.03986   0.00000   0.05634
  22        3PZ         0.00129   0.00000   0.02509   0.00000   0.03294
  23        4S         -0.05289   0.00000   0.00750   0.00000   0.00284
  24        4PX         0.00000  -0.00448   0.00000  -0.00116   0.00000
  25        4PY         0.00721   0.00000  -0.01576   0.00000  -0.01859
  26        4PZ        -0.00307   0.00000  -0.00815   0.00000  -0.00896
  27 3   Cl 1S          0.12493  -0.21638  -0.00088  -0.00103   0.00060
  28        2S         -0.40149   0.69540   0.00314   0.00358  -0.00207
  29        2PX         0.00168  -0.00313   0.40754   0.51976  -0.27293
  30        2PY        -0.00119   0.00168  -0.23530  -0.27293   0.20461
  31        2PZ        -0.00028   0.00049   0.30760   0.35863  -0.20706
  32        3S         -0.05677   0.09833  -0.00383  -0.00170   0.00098
  33        3PX         0.00218  -0.00213   0.03452   0.04324  -0.02270
  34        3PY         0.00039   0.00218  -0.01993  -0.02270   0.01703
  35        3PZ        -0.00065   0.00112   0.02509   0.02853  -0.01647
  36        4S          0.02645  -0.04581   0.00750   0.00246  -0.00142
  37        4PX        -0.00506   0.00429  -0.01365  -0.01423   0.00754
  38        4PY        -0.00156  -0.00506   0.00788   0.00754  -0.00552
  39        4PZ         0.00153  -0.00266  -0.00815  -0.00776   0.00448
  40 4   Cl 1S          0.12493   0.21638  -0.00088   0.00103   0.00060
  41        2S         -0.40149  -0.69540   0.00314  -0.00358  -0.00207
  42        2PX        -0.00168  -0.00313  -0.40754   0.51976   0.27293
  43        2PY        -0.00119  -0.00168  -0.23530   0.27293   0.20461
  44        2PZ        -0.00028  -0.00049   0.30760  -0.35863  -0.20706
  45        3S         -0.05677  -0.09833  -0.00383   0.00170   0.00098
  46        3PX        -0.00218  -0.00213  -0.03452   0.04324   0.02270
  47        3PY         0.00039  -0.00218  -0.01993   0.02270   0.01703
  48        3PZ        -0.00065  -0.00112   0.02509  -0.02853  -0.01647
  49        4S          0.02645   0.04581   0.00750  -0.00246  -0.00142
  50        4PX         0.00506   0.00429   0.01365  -0.01423  -0.00754
  51        4PY        -0.00156   0.00506   0.00788  -0.00754  -0.00552
  52        4PZ         0.00153   0.00266  -0.00815   0.00776   0.00448
                          11        12        13        14        15
                        (E)--O    (E)--O    (A2)--O   (A1)--O   (E)--O
     Eigenvalues --    -7.77048  -7.77048  -7.77042  -7.76952  -7.76949
   1 1   Al 1S          0.00000  -0.00000   0.00000   0.00004   0.00000
   2        2S          0.00000   0.00000   0.00000  -0.00016  -0.00000
   3        2PX        -0.00001   0.00000  -0.00000   0.00000   0.00000
   4        2PY         0.00000  -0.00001   0.00000   0.00000  -0.00011
   5        2PZ         0.00000   0.00000   0.00000   0.00011   0.00000
   6        3S          0.00000  -0.00000   0.00000   0.00251   0.00000
   7        3PX        -0.00028   0.00000   0.00000   0.00000   0.00000
   8        3PY         0.00000  -0.00028   0.00000  -0.00000   0.00297
   9        3PZ         0.00000   0.00000   0.00000  -0.00185  -0.00000
  10        4S          0.00000  -0.00000   0.00000   0.00692   0.00000
  11        4PX         0.00992   0.00000  -0.00000   0.00000   0.00000
  12        4PY         0.00000   0.00992   0.00000  -0.00000   0.00421
  13        4PZ         0.00000   0.00000   0.00000   0.00303   0.00000
  14 2   Cl 1S          0.00000   0.00023   0.00000   0.00078   0.00106
  15        2S          0.00000  -0.00089   0.00000  -0.00273  -0.00373
  16        2PX         0.79100   0.00000   0.56253   0.00000   0.00000
  17        2PY         0.00000  -0.07637   0.00000  -0.30731  -0.40913
  18        2PZ         0.00000   0.03514   0.00000   0.47089   0.67837
  19        3S          0.00000   0.00309   0.00000   0.00212   0.00308
  20        3PX         0.06456   0.00000   0.04557   0.00000   0.00000
  21        3PY         0.00000  -0.00670   0.00000  -0.02610  -0.03486
  22        3PZ         0.00000   0.00343   0.00000   0.03856   0.05520
  23        4S          0.00000  -0.00724   0.00000  -0.00350  -0.00543
  24        4PX        -0.02094   0.00000  -0.01358   0.00000   0.00000
  25        4PY         0.00000   0.00409   0.00000   0.00970   0.01309
  26        4PZ         0.00000  -0.00245   0.00000  -0.01241  -0.01703
  27 3   Cl 1S          0.00020  -0.00012   0.00000   0.00078  -0.00053
  28        2S         -0.00077   0.00044  -0.00000  -0.00273   0.00186
  29        2PX         0.14047   0.37558  -0.28127  -0.26614   0.14688
  30        2PY         0.37558   0.57415  -0.48717   0.15366  -0.15472
  31        2PZ         0.03043  -0.01757  -0.00000   0.47089  -0.33919
  32        3S          0.00267  -0.00154  -0.00000   0.00212  -0.00154
  33        3PX         0.01112   0.03086  -0.02279  -0.02260   0.01287
  34        3PY         0.03086   0.04675  -0.03947   0.01305  -0.01257
  35        3PZ         0.00297  -0.00172  -0.00000   0.03856  -0.02760
  36        4S         -0.00627   0.00362   0.00000  -0.00350   0.00271
  37        4PX        -0.00217  -0.01084   0.00679   0.00840  -0.00554
  38        4PY        -0.01084  -0.01468   0.01176  -0.00485   0.00349
  39        4PZ        -0.00212   0.00123   0.00000  -0.01241   0.00852
  40 4   Cl 1S         -0.00020  -0.00012  -0.00000   0.00078  -0.00053
  41        2S          0.00077   0.00044   0.00000  -0.00273   0.00186
  42        2PX         0.14047  -0.37558  -0.28127   0.26614  -0.14688
  43        2PY        -0.37558   0.57415   0.48717   0.15366  -0.15472
  44        2PZ        -0.03043  -0.01757   0.00000   0.47089  -0.33919
  45        3S         -0.00267  -0.00154   0.00000   0.00212  -0.00154
  46        3PX         0.01112  -0.03086  -0.02279   0.02260  -0.01287
  47        3PY        -0.03086   0.04675   0.03947   0.01305  -0.01257
  48        3PZ        -0.00297  -0.00172   0.00000   0.03856  -0.02760
  49        4S          0.00627   0.00362  -0.00000  -0.00350   0.00271
  50        4PX        -0.00217   0.01084   0.00679  -0.00840   0.00554
  51        4PY         0.01084  -0.01468  -0.01176  -0.00485   0.00349
  52        4PZ         0.00212   0.00123  -0.00000  -0.01241   0.00852
                          16        17        18        19        20
                        (E)--O    (A1)--O   (E)--O    (E)--O    (A1)--O
     Eigenvalues --    -7.76949  -4.80621  -3.11225  -3.11225  -3.10949
   1 1   Al 1S          0.00000  -0.28422  -0.00000   0.00000  -0.00342
   2        2S          0.00000   1.01130   0.00000   0.00000   0.01271
   3        2PX        -0.00011   0.00000   0.00000   0.97895   0.00000
   4        2PY         0.00000  -0.00000   0.97895   0.00000   0.00000
   5        2PZ         0.00000  -0.01111  -0.00000   0.00000   0.97975
   6        3S          0.00000   0.09004  -0.00000   0.00000  -0.00044
   7        3PX         0.00297   0.00000   0.00000   0.08738   0.00000
   8        3PY         0.00000   0.00000   0.08738   0.00000   0.00000
   9        3PZ         0.00000  -0.00305  -0.00000   0.00000   0.08256
  10        4S          0.00000  -0.03065   0.00000   0.00000  -0.00462
  11        4PX         0.00421   0.00000   0.00000  -0.02771   0.00000
  12        4PY         0.00000   0.00000  -0.02771   0.00000  -0.00000
  13        4PZ         0.00000   0.00018   0.00000   0.00000  -0.02925
  14 2   Cl 1S          0.00000   0.00003   0.00004   0.00000  -0.00002
  15        2S          0.00000  -0.00017  -0.00011   0.00000   0.00009
  16        2PX        -0.06992   0.00000   0.00000  -0.00004   0.00000
  17        2PY         0.00000   0.00028   0.00018   0.00000  -0.00009
  18        2PZ         0.00000  -0.00006  -0.00007   0.00000   0.00006
  19        3S          0.00000   0.00229   0.00248   0.00000  -0.00128
  20        3PX        -0.00515   0.00000   0.00000   0.00016   0.00000
  21        3PY         0.00000  -0.00181  -0.00108   0.00000   0.00047
  22        3PZ         0.00000   0.00038   0.00037   0.00000  -0.00030
  23        4S          0.00000  -0.00138  -0.00159   0.00000   0.00172
  24        4PX         0.00030   0.00000   0.00000   0.00041   0.00000
  25        4PY         0.00000   0.00589   0.01000   0.00000  -0.00295
  26        4PZ         0.00000  -0.00130  -0.00255   0.00000   0.00204
  27 3   Cl 1S          0.00092   0.00003  -0.00002   0.00003  -0.00002
  28        2S         -0.00323  -0.00017   0.00006  -0.00010   0.00009
  29        2PX        -0.32433   0.00024  -0.00009   0.00012  -0.00008
  30        2PY         0.14688  -0.00014   0.00002  -0.00009   0.00004
  31        2PZ         0.58749  -0.00006   0.00003  -0.00006   0.00006
  32        3S          0.00267   0.00229  -0.00124   0.00214  -0.00128
  33        3PX        -0.02743  -0.00156   0.00054  -0.00077   0.00041
  34        3PY         0.01287   0.00090  -0.00015   0.00054  -0.00024
  35        3PZ         0.04781   0.00038  -0.00019   0.00032  -0.00030
  36        4S         -0.00470  -0.00138   0.00079  -0.00138   0.00172
  37        4PX         0.00989   0.00510  -0.00415   0.00761  -0.00255
  38        4PY        -0.00554  -0.00294   0.00281  -0.00415   0.00147
  39        4PZ        -0.01475  -0.00130   0.00128  -0.00221   0.00204
  40 4   Cl 1S         -0.00092   0.00003  -0.00002  -0.00003  -0.00002
  41        2S          0.00323  -0.00017   0.00006   0.00010   0.00009
  42        2PX        -0.32433  -0.00024   0.00009   0.00012   0.00008
  43        2PY        -0.14688  -0.00014   0.00002   0.00009   0.00004
  44        2PZ        -0.58749  -0.00006   0.00003   0.00006   0.00006
  45        3S         -0.00267   0.00229  -0.00124  -0.00214  -0.00128
  46        3PX        -0.02743   0.00156  -0.00054  -0.00077  -0.00041
  47        3PY        -0.01287   0.00090  -0.00015  -0.00054  -0.00024
  48        3PZ        -0.04781   0.00038  -0.00019  -0.00032  -0.00030
  49        4S          0.00470  -0.00138   0.00079   0.00138   0.00172
  50        4PX         0.00989  -0.00510   0.00415   0.00761   0.00255
  51        4PY         0.00554  -0.00294   0.00281   0.00415   0.00147
  52        4PZ         0.01475  -0.00130   0.00128   0.00221   0.00204
                          21        22        23        24        25
                        (A1)--O   (E)--O    (E)--O    (A1)--O   (E)--O
     Eigenvalues --    -0.88329  -0.87633  -0.87633  -0.37324  -0.30682
   1 1   Al 1S          0.00967   0.00000   0.00000   0.03632   0.00000
   2        2S         -0.04460  -0.00000   0.00000  -0.17655  -0.00000
   3        2PX         0.00000   0.00000  -0.02686   0.00000   0.00000
   4        2PY         0.00000  -0.02686   0.00000  -0.00000   0.08090
   5        2PZ         0.01161   0.00000   0.00000   0.03793  -0.00000
   6        3S          0.07221   0.00000   0.00000   0.29445   0.00000
   7        3PX         0.00000   0.00000   0.03991   0.00000   0.00000
   8        3PY        -0.00000   0.03991   0.00000   0.00000  -0.16472
   9        3PZ        -0.02025  -0.00000   0.00000  -0.09131   0.00000
  10        4S         -0.01270  -0.00000   0.00000   0.14969  -0.00000
  11        4PX         0.00000   0.00000  -0.02153   0.00000   0.00000
  12        4PY        -0.00000  -0.02153   0.00000   0.00000  -0.05157
  13        4PZ         0.00915   0.00000   0.00000  -0.00693   0.00000
  14 2   Cl 1S          0.04504   0.06465   0.00000  -0.00963   0.00660
  15        2S         -0.26505  -0.38059   0.00000   0.05806  -0.04007
  16        2PX         0.00000   0.00000  -0.00045   0.00000   0.00000
  17        2PY         0.00982   0.01139   0.00000   0.12090  -0.15194
  18        2PZ        -0.00161  -0.00203   0.00000  -0.01489   0.03776
  19        3S          0.31903   0.45962   0.00000  -0.08828   0.06362
  20        3PX         0.00000   0.00000   0.00031   0.00000   0.00000
  21        3PY        -0.01730  -0.01980   0.00000  -0.25213   0.31829
  22        3PZ         0.00262   0.00284   0.00000   0.03038  -0.08006
  23        4S          0.31711   0.45597   0.00000  -0.06753   0.04909
  24        4PX         0.00000   0.00000   0.00442   0.00000   0.00000
  25        4PY        -0.02798  -0.03362   0.00000  -0.23303   0.30065
  26        4PZ         0.00464   0.00857   0.00000   0.02913  -0.06866
  27 3   Cl 1S          0.04504  -0.03233   0.05599  -0.00963  -0.00330
  28        2S         -0.26505   0.19029  -0.32960   0.05806   0.02003
  29        2PX         0.00850  -0.00513   0.00843   0.10470   0.12397
  30        2PY        -0.00491   0.00251  -0.00513  -0.06045   0.06278
  31        2PZ        -0.00161   0.00102  -0.00176  -0.01489  -0.01888
  32        3S          0.31903  -0.22981   0.39804  -0.08828  -0.03181
  33        3PX        -0.01498   0.00871  -0.01477  -0.21835  -0.26203
  34        3PY         0.00865  -0.00472   0.00871   0.12607  -0.13555
  35        3PZ         0.00262  -0.00142   0.00246   0.03038   0.04003
  36        4S          0.31711  -0.22798   0.39488  -0.06753  -0.02455
  37        4PX        -0.02424   0.01647  -0.02411  -0.20181  -0.24488
  38        4PY         0.01399  -0.00509   0.01647   0.11652  -0.12349
  39        4PZ         0.00464  -0.00428   0.00742   0.02913   0.03433
  40 4   Cl 1S          0.04504  -0.03233  -0.05599  -0.00963  -0.00330
  41        2S         -0.26505   0.19029   0.32960   0.05806   0.02003
  42        2PX        -0.00850   0.00513   0.00843  -0.10470  -0.12397
  43        2PY        -0.00491   0.00251   0.00513  -0.06045   0.06278
  44        2PZ        -0.00161   0.00102   0.00176  -0.01489  -0.01888
  45        3S          0.31903  -0.22981  -0.39804  -0.08828  -0.03181
  46        3PX         0.01498  -0.00871  -0.01477   0.21835   0.26203
  47        3PY         0.00865  -0.00472  -0.00871   0.12607  -0.13555
  48        3PZ         0.00262  -0.00142  -0.00246   0.03038   0.04003
  49        4S          0.31711  -0.22798  -0.39488  -0.06753  -0.02455
  50        4PX         0.02424  -0.01647  -0.02411   0.20181   0.24488
  51        4PY         0.01399  -0.00509  -0.01647   0.11652  -0.12349
  52        4PZ         0.00464  -0.00428  -0.00742   0.02913   0.03433
                          26        27        28        29        30
                        (E)--O    (A1)--O   (E)--O    (E)--O    (E)--O
     Eigenvalues --    -0.30682  -0.29327  -0.28332  -0.28332  -0.28022
   1 1   Al 1S          0.00000   0.00476   0.00000   0.00000   0.00000
   2        2S          0.00000  -0.02155   0.00000  -0.00000   0.00000
   3        2PX        -0.08090   0.00000  -0.01776   0.00000   0.03722
   4        2PY         0.00000   0.00000   0.00000  -0.01776   0.00000
   5        2PZ         0.00000  -0.02740   0.00000  -0.00000   0.00000
   6        3S          0.00000   0.04715   0.00000   0.00000   0.00000
   7        3PX         0.16472   0.00000   0.03652   0.00000  -0.08523
   8        3PY         0.00000  -0.00000   0.00000   0.03652   0.00000
   9        3PZ         0.00000   0.04384   0.00000   0.00000   0.00000
  10        4S          0.00000  -0.01141   0.00000  -0.00000   0.00000
  11        4PX         0.05157   0.00000   0.00559   0.00000   0.07710
  12        4PY         0.00000   0.00000   0.00000   0.00559   0.00000
  13        4PZ         0.00000   0.09007   0.00000   0.00000   0.00000
  14 2   Cl 1S          0.00000  -0.00055   0.00000  -0.00131   0.00000
  15        2S          0.00000   0.00325   0.00000   0.00795   0.00000
  16        2PX        -0.13435   0.00000   0.05351   0.00000  -0.16476
  17        2PY         0.00000  -0.02324   0.00000  -0.01254   0.00000
  18        2PZ         0.00000  -0.15133   0.00000  -0.21440   0.00000
  19        3S          0.00000  -0.01336   0.00000  -0.01518   0.00000
  20        3PX         0.28683   0.00000  -0.11314   0.00000   0.35334
  21        3PY         0.00000   0.05178   0.00000   0.02817   0.00000
  22        3PZ         0.00000   0.32351   0.00000   0.45636   0.00000
  23        4S          0.00000   0.02011   0.00000  -0.00428   0.00000
  24        4PX         0.26487   0.00000  -0.11433   0.00000   0.32368
  25        4PY         0.00000   0.03323   0.00000   0.02622   0.00000
  26        4PZ         0.00000   0.29831   0.00000   0.43905   0.00000
  27 3   Cl 1S         -0.00572  -0.00055  -0.00113   0.00065   0.00302
  28        2S          0.03470   0.00325   0.00688  -0.00397  -0.01816
  29        2PX         0.08037  -0.02013   0.00397   0.02860  -0.14747
  30        2PY        -0.12397   0.01162   0.02860   0.03700  -0.00999
  31        2PZ        -0.03270  -0.15133  -0.18567   0.10720  -0.03155
  32        3S         -0.05510  -0.01336  -0.01315   0.00759   0.04750
  33        3PX        -0.16701   0.04484  -0.00715  -0.06119   0.31008
  34        3PY         0.26203  -0.02589  -0.06119  -0.07781   0.02497
  35        3PZ         0.06934   0.32351   0.39522  -0.22818   0.06954
  36        4S         -0.04252   0.02011  -0.00371   0.00214  -0.03602
  37        4PX        -0.15927   0.02878  -0.00892  -0.06086   0.31468
  38        4PY         0.24488  -0.01661  -0.06086  -0.07920   0.00519
  39        4PZ         0.05946   0.29831   0.38023  -0.21953   0.05506
  40 4   Cl 1S          0.00572  -0.00055   0.00113   0.00065  -0.00302
  41        2S         -0.03470   0.00325  -0.00688  -0.00397   0.01816
  42        2PX         0.08037   0.02013   0.00397  -0.02860  -0.14747
  43        2PY         0.12397   0.01162  -0.02860   0.03700   0.00999
  44        2PZ         0.03270  -0.15133   0.18567   0.10720   0.03155
  45        3S          0.05510  -0.01336   0.01315   0.00759  -0.04750
  46        3PX        -0.16701  -0.04484  -0.00715   0.06119   0.31008
  47        3PY        -0.26203  -0.02589   0.06119  -0.07781  -0.02497
  48        3PZ        -0.06934   0.32351  -0.39522  -0.22818  -0.06954
  49        4S          0.04252   0.02011   0.00371   0.00214   0.03602
  50        4PX        -0.15927  -0.02878  -0.00892   0.06086   0.31468
  51        4PY        -0.24488  -0.01661   0.06086  -0.07920  -0.00519
  52        4PZ        -0.05946   0.29831  -0.38023  -0.21953  -0.05506
                          31        32        33        34        35
                        (E)--O    (A2)--O   (A1)--V   (A1)--V   (E)--V
     Eigenvalues --    -0.28022  -0.27754   0.15527   0.22548   0.29065
   1 1   Al 1S          0.00000   0.00000   0.04842  -0.01870   0.00000
[...]
              Bcc     0.4121    21.570     7.697     7.195  0.5519  0.3186  0.7707
 

 ---------------------------------------------------------------------------------

 Calling FoFJK, ICntrl=    100127 FMM=F ISym2X=1 I1Cent= 0 IOpClX= 1 NMat=1 NMatS=1 NMatT=0.
 Full mass-weighted force constant matrix:
 Low frequencies ---   -0.0039   -0.0034   -0.0026    1.0181    1.4080    1.4087
 Low frequencies ---  129.1145  129.1145  185.5194
 Diagonal vibrational polarizability:
       27.7012504      27.7012479      30.6326474
 Diagonal vibrational hyperpolarizability:
        0.0000000      43.9690001     211.4079348
 Harmonic frequencies (cm**-1), IR intensities (KM/Mole), Raman scattering
 activities (A**4/AMU), depolarization ratios for plane and unpolarized
 incident light, reduced masses (AMU), force constants (mDyne/A),
 and normal coordinates:
                      1                      2                      3
                      E                      E                     A1
 Frequencies --    129.1145               129.1145               185.5194
 Red. masses --     33.9989                33.9989                32.1497
 Frc consts  --      0.3339                 0.3339                 0.6519
 IR Inten    --      3.3765                 3.3765                20.8566
 Raman Activ --      1.8295                 1.8295                 2.9643
 Depolar (P) --      0.7500                 0.7500                 0.6507
 Depolar (U) --      0.8571                 0.8571                 0.7884
  Atom  AN      X      Y      Z        X      Y      Z        X      Y      Z
     1  13    -0.35   0.00   0.00     0.00   0.35   0.00     0.00  -0.00   0.59
     2  17     0.62   0.00   0.00    -0.00   0.44   0.07    -0.00  -0.44  -0.15
     3  17    -0.18   0.46  -0.06    -0.46  -0.36  -0.04    -0.38   0.22  -0.15
     4  17    -0.17  -0.46   0.06     0.46  -0.35  -0.04     0.38   0.22  -0.15
                      4                      5                      6
                     A1                      E                      E
 Frequencies --    379.4777               439.3525               439.3525
 Red. masses --     30.4665                29.3227                29.3227
 Frc consts  --      2.5849                 3.3349                 3.3349
 IR Inten    --     76.6527               159.6011               159.6011
 Raman Activ --      8.5078                 5.7417                 5.7417
 Depolar (P) --      0.0005                 0.7500                 0.7500
 Depolar (U) --      0.0010                 0.8571                 0.8571
  Atom  AN      X      Y      Z        X      Y      Z        X      Y      Z
     1  13    -0.00  -0.00   0.75    -0.00   0.84   0.00     0.84   0.00   0.00
     2  17     0.00   0.33  -0.19     0.00  -0.41   0.17    -0.03  -0.00   0.00
     3  17     0.28  -0.16  -0.19     0.16  -0.12  -0.09    -0.31   0.16   0.15
     4  17    -0.28  -0.16  -0.19    -0.16  -0.12  -0.09    -0.31  -0.16  -0.15

 -------------------
 - Thermochemistry -
 -------------------
 Temperature   298.150 Kelvin.  Pressure   1.00000 Atm.
 Atom     1 has atomic number 13 and mass  26.98154
 Atom     2 has atomic number 17 and mass  34.96885
 Atom     3 has atomic number 17 and mass  34.96885
 Atom     4 has atomic number 17 and mass  34.96885
 Molecular mass:   131.88810 amu.
 Principal axes and moments of inertia in atomic units:
                           1         2         3
     Eigenvalues --   906.25329 906.253291701.77724
           X            0.83205   0.55470   0.00000
           Y           -0.55470   0.83205   0.00000
           Z            0.00000  -0.00000   1.00000
 This molecule is an oblate symmetric top.
 Rotational symmetry number  3.
 Warning -- assumption of classical behavior for rotation
           may cause significant error
 Rotational temperatures (Kelvin)      0.09557     0.09557     0.05090
 Rotational constants (GHZ):           1.99143     1.99143     1.06050
 Zero-point vibrational energy      10179.8 (Joules/Mol)
                                    2.43303 (Kcal/Mol)
 Warning -- explicit consideration of   6 degrees of freedom as
           vibrations may cause significant error
 Vibrational temperatures:    185.77   185.77   266.92   545.98   632.13
          (Kelvin)            632.13
 
 Zero-point correction=                           0.003877 (Hartree/Particle)
 Thermal correction to Energy=                    0.009530
 Thermal correction to Enthalpy=                  0.010474
 Thermal correction to Gibbs Free Energy=        -0.027229
 Sum of electronic and zero-point Energies=          -1612.770575
 Sum of electronic and thermal Energies=             -1612.764922
 Sum of electronic and thermal Enthalpies=           -1612.763978
 Sum of electronic and thermal Free Energies=        -1612.801681
 
                     E (Thermal)             CV                S
                      KCal/Mol        Cal/Mol-Kelvin    Cal/Mol-Kelvin
 Total                    5.980             15.952             79.353
 Electronic               0.000              0.000              1.377
 Translational            0.889              2.981             40.543
 Rotational               0.889              2.981             26.543
 Vibrational              4.203              9.991             10.889
 Vibration     1          0.612              1.924              2.959
 Vibration     2          0.612              1.924              2.959
 Vibration     3          0.632              1.860              2.272
 Vibration     4          0.749              1.514              1.041
 Vibration     5          0.799              1.384              0.829
 Vibration     6          0.799              1.384              0.829
                       Q            Log10(Q)             Ln(Q)
 Total Bot       0.334378D+13         12.524238         28.838124
 Total V=0       0.203078D+15         14.307663         32.944613
 Vib (Bot)       0.199077D+00         -0.700979         -1.614065
 Vib (Bot)    1  0.157930D+01          0.198464          0.456980
 Vib (Bot)    2  0.157930D+01          0.198464          0.456980
 Vib (Bot)    3  0.108055D+01          0.033644          0.077469
 Vib (Bot)    4  0.476632D+00         -0.321817         -0.741010
 Vib (Bot)    5  0.393670D+00         -0.404868         -0.932242
 Vib (Bot)    6  0.393670D+00         -0.404868         -0.932242
 Vib (V=0)       0.120905D+02          1.082446          2.492424
 Vib (V=0)    1  0.215656D+01          0.333761          0.768513
 Vib (V=0)    2  0.215656D+01          0.333761          0.768513
 Vib (V=0)    3  0.169062D+01          0.228047          0.525098
 Vib (V=0)    4  0.119078D+01          0.075832          0.174609
 Vib (V=0)    5  0.113638D+01          0.055523          0.127845
 Vib (V=0)    6  0.113638D+01          0.055523          0.127845
 Electronic      0.200000D+01          0.301030          0.693147
 Translational   0.595336D+08          7.774762         17.902052
 Rotational      0.141067D+06          5.149425         11.856990
 ***** Axes restored to original set *****
 -------------------------------------------------------------------
 Center     Atomic                   Forces (Hartrees/Bohr)
 Number     Number              X              Y              Z
 -------------------------------------------------------------------
      1       13           0.000000000   -0.000000000    0.000021544
      2       17           0.000000000   -0.000005482   -0.000007181
      3       17           0.000004747    0.000002741   -0.000007181
      4       17          -0.000004747    0.000002741   -0.000007181
 -------------------------------------------------------------------
 Cartesian Forces:  Max     0.000021544 RMS     0.000007687
 FormGI is forming the generalized inverse of G from B-inverse, IUseBI=4.

 GradGradGradGradGradGradGradGradGradGradGradGradGradGradGradGradGradGrad
 Berny optimization.
 Internal  Forces:  Max     0.000014117 RMS     0.000009757
 Search for a local minimum.
 Step number   1 out of a maximum of    2
 All quantities printed in internal units (Hartrees-Bohrs-Radians)
 Second derivative matrix not updated -- analytic derivatives used.
 The second derivative matrix:
                          R1        R2        R3        A1        A2
           R1           0.09981
           R2           0.00587   0.09981
           R3           0.00587   0.00587   0.09981
           A1           0.00229   0.00229  -0.00374   0.04278
           A2           0.00385  -0.00449   0.00481  -0.02829   0.12416
           A3          -0.00449   0.00385   0.00481  -0.02829   0.00530
           D1           0.00232   0.00232   0.00031   0.02209   0.02955
                          A3        D1
           A3           0.12416
           D1           0.02955   0.05378
 ITU=  0
     Eigenvalues ---    0.06942   0.09141   0.09429   0.11136   0.12139
     Eigenvalues ---    0.15645
 Angle between quadratic step and forces=  18.53 degrees.
 Linear search not attempted -- first point.
 Iteration  1 RMS(Cart)=  0.00010348 RMS(Int)=  0.00000001
 Iteration  2 RMS(Cart)=  0.00000001 RMS(Int)=  0.00000000
 ClnCor:  largest displacement from symmetrization is 7.91D-09 for atom     4.
 Variable       Old X    -DE/DX   Delta X   Delta X   Delta X     New X
                                 (Linear)    (Quad)   (Total)
    R1        4.33607  -0.00001   0.00000  -0.00007  -0.00007   4.33600
    R2        4.33607  -0.00001   0.00000  -0.00007  -0.00007   4.33600
    R3        4.33607  -0.00001   0.00000  -0.00007  -0.00007   4.33600
    A1        1.86940   0.00000   0.00000   0.00007   0.00007   1.86948
    A2        1.86940   0.00001   0.00000   0.00007   0.00007   1.86948
    A3        1.86940   0.00001   0.00000   0.00007   0.00007   1.86948
    D1        2.00073   0.00001   0.00000   0.00016   0.00016   2.00089
         Item               Value     Threshold  Converged?
 Maximum Force            0.000014     0.000450     YES
 RMS     Force            0.000010     0.000300     YES
 Maximum Displacement     0.000229     0.001800     YES
 RMS     Displacement     0.000103     0.001200     YES
 Predicted change in Energy=-2.937370D-09
 Optimization completed.
    -- Stationary point found.
                           ----------------------------
                           !   Optimized Parameters   !
                           ! (Angstroms and Degrees)  !
 --------------------------                            --------------------------
 ! Name  Definition              Value          Derivative Info.                !
 --------------------------------------------------------------------------------
 ! R1    R(1,2)                  2.2946         -DE/DX =    0.0                 !
 ! R2    R(1,3)                  2.2946         -DE/DX =    0.0                 !
 ! R3    R(1,4)                  2.2946         -DE/DX =    0.0                 !
 ! A1    A(2,1,3)              107.109          -DE/DX =    0.0                 !
 ! A2    A(2,1,4)              107.109          -DE/DX =    0.0                 !
 ! A3    A(3,1,4)              107.109          -DE/DX =    0.0                 !
 ! D1    D(2,1,4,3)            114.6334         -DE/DX =    0.0                 !
 --------------------------------------------------------------------------------
 GradGradGradGradGradGradGradGradGradGradGradGradGradGradGradGradGradGrad


 ----------------------------------------------------------------------

 Electric dipole moment (input orientation):
 (Debye = 10**-18 statcoulomb cm , SI units = C m)
                  (au)            (Debye)         (10**-30 SI)
   Tot        0.758754D+00      0.192856D+01      0.643298D+01
   x          0.000000D+00      0.000000D+00      0.000000D+00
   y          0.000000D+00      0.000000D+00      0.000000D+00
   z         -0.758754D+00     -0.192856D+01     -0.643298D+01

 Dipole polarizability, Alpha (input orientation).
 (esu units = cm**3 , SI units = C**2 m**2 J**-1)
 Alpha(0;0):
               (au)            (10**-24 esu)      (10**-40 SI)
   iso        0.470067D+02      0.696567D+01      0.775035D+01
   aniso      0.225210D+02      0.333727D+01      0.371322D+01
   xx         0.545137D+02      0.807809D+01      0.898809D+01
   yx         0.000000D+00      0.000000D+00      0.000000D+00
   yy         0.545137D+02      0.807809D+01      0.898809D+01
   zx         0.000000D+00      0.000000D+00      0.000000D+00
   zy         0.000000D+00      0.000000D+00      0.000000D+00
   zz         0.319926D+02      0.474082D+01      0.527487D+01

 First dipole hyperpolarizability, Beta (input orientation).
 ||, _|_  parallel and perpendicular components, (z) with respect to z axis,
 vector components x,y,z.  Values do not include the 1/n! factor of 1/2.
 (esu units = statvolt**-1 cm**4 , SI units = C**3 m**3 J**-2)
 Beta(0;0,0):
               (au)            (10**-30 esu)      (10**-50 SI)
   || (z)    -0.324794D+03     -0.280597D+01     -0.104141D+01
   _|_(z)    -0.108265D+03     -0.935324D+00     -0.347136D+00
   x          0.000000D+00      0.000000D+00      0.000000D+00
   y          0.000000D+00      0.000000D+00      0.000000D+00
   z         -0.162397D+04     -0.140299D+02     -0.520704D+01
   ||         0.324794D+03      0.280597D+01      0.104141D+01
   xxx       -0.242760D-04     -0.209726D-06     -0.778377D-07
   xxy        0.224132D+03      0.193633D+01      0.718649D+00
   yxy        0.242760D-04      0.209726D-06      0.778377D-07
   yyy       -0.224132D+03     -0.193633D+01     -0.718649D+00
   xxz       -0.149485D+03     -0.129144D+01     -0.479304D+00
   yxz        0.000000D+00      0.000000D+00      0.000000D+00
   yyz       -0.149485D+03     -0.129144D+01     -0.479304D+00
   zxz        0.000000D+00      0.000000D+00      0.000000D+00
   zyz        0.000000D+00      0.000000D+00      0.000000D+00
   zzz       -0.242353D+03     -0.209374D+01     -0.777073D+00

 ----------------------------------------------------------------------

 Dipole orientation:
    13          0.00000000          0.00000050          1.26195476
    17         -0.00000015         -4.02763384         -0.34418924
    17         -3.48803359          2.01381780         -0.34418924
    17          3.48803373          2.01381755         -0.34418924

 Electric dipole moment (dipole orientation):
 (Debye = 10**-18 statcoulomb cm , SI units = C m)
                  (au)            (Debye)         (10**-30 SI)
   Tot        0.758754D+00      0.192856D+01      0.643298D+01
   x          0.000000D+00      0.000000D+00      0.000000D+00
   y          0.000000D+00      0.000000D+00      0.000000D+00
   z          0.758754D+00      0.192856D+01      0.643298D+01

 Dipole polarizability, Alpha (dipole orientation).
 (esu units = cm**3 , SI units = C**2 m**2 J**-1)
 Alpha(0;0):
               (au)            (10**-24 esu)      (10**-40 SI)
   iso        0.470067D+02      0.696567D+01      0.775035D+01
   aniso      0.225210D+02      0.333727D+01      0.371322D+01
   xx         0.545137D+02      0.807809D+01      0.898809D+01
   yx         0.000000D+00      0.000000D+00      0.000000D+00
   yy         0.545137D+02      0.807809D+01      0.898809D+01
   zx         0.000000D+00      0.000000D+00      0.000000D+00
   zy         0.000000D+00      0.000000D+00      0.000000D+00
   zz         0.319926D+02      0.474082D+01      0.527487D+01

 First dipole hyperpolarizability, Beta (dipole orientation).
 ||, _|_  parallel and perpendicular components, (z) with respect to z axis,
 vector components x,y,z.  Values do not include the 1/n! factor of 1/2.
 (esu units = statvolt**-1 cm**4 , SI units = C**3 m**3 J**-2)
 Beta(0;0,0):
               (au)            (10**-30 esu)      (10**-50 SI)
   || (z)     0.324794D+03      0.280597D+01      0.104141D+01
   _|_(z)     0.108265D+03      0.935324D+00      0.347136D+00
   x          0.000000D+00      0.000000D+00      0.000000D+00
   y          0.000000D+00      0.000000D+00      0.000000D+00
   z          0.162397D+04      0.140299D+02      0.520704D+01
   ||         0.324794D+03      0.280597D+01      0.104141D+01
   xxx       -0.242760D-04     -0.209726D-06     -0.778377D-07
   xxy       -0.224132D+03     -0.193633D+01     -0.718649D+00
   yxy        0.242760D-04      0.209726D-06      0.778377D-07
   yyy        0.224132D+03      0.193633D+01      0.718649D+00
   xxz        0.149485D+03      0.129144D+01      0.479304D+00
   yxz        0.000000D+00      0.000000D+00      0.000000D+00
   yyz        0.149485D+03      0.129144D+01      0.479304D+00
   zxz        0.000000D+00      0.000000D+00      0.000000D+00
   zyz        0.000000D+00      0.000000D+00      0.000000D+00
   zzz        0.242353D+03      0.209374D+01      0.777073D+00

 ----------------------------------------------------------------------
 1\1\GINC-IISERK51\Freq\UHF\3-21G\Al1Cl3(1-,2)\GAUSSIAN\13-Jun-2025\0\\
 #N Geom=AllCheck Guess=TCheck SCRF=Check GenChk UHF/3-21G Freq\\Title 
 Card Required\\-1,2\Al,0.,-0.0000002656,-0.6677976991\Cl,-0.0000000769
 ,2.1313320435,0.1821370998\Cl,-1.8457878851,-1.0656664868,0.1821370998
 \Cl,1.8457879621,-1.0656663536,0.1821370998\\Version=EM64L-G16RevB.01\
 State=2-A1\HF=-1612.7744527\S2=0.752223\S2-1=0.\S2A=0.750002\RMSD=4.46
 4e-10\RMSF=7.687e-06\ZeroPoint=0.0038773\Thermal=0.0095303\Dipole=0.,0
 .,-0.7587537\DipoleDeriv=1.6143257,0.,0.,0.,1.6143256,0.,0.,0.,1.23803
 61,-0.5627169,0.,0.,0.,-1.1801669,-0.1886077,0.,-0.3575851,-0.746012,-
 1.0258044,-0.2673637,0.1633391,-0.2673637,-0.7170794,0.0943039,0.30967
 77,0.1787925,-0.746012,-1.0258044,0.2673637,-0.1633391,0.2673637,-0.71
 70794,0.0943039,-0.3096777,0.1787925,-0.746012\Polar=54.5136668,0.,54.
 5136668,0.,0.,31.9926363\PolarDeriv=-0.0000003,2.3528951,0.0000003,-6.
 0272908,0.,0.,2.3528957,0.0000003,-2.3528957,0.,-6.0272884,-0.000001,-
 3.0254849,0.,-3.0254849,0.,0.000001,-8.8329971,-0.0000003,3.7372376,-0
 .0000001,0.4172867,-0.0000001,0.,0.7322588,-0.0000002,11.3439235,-0.00
 00001,3.6009031,-0.2697525,0.382966,0.,1.6340212,-0.0000002,5.3301316,
 2.9443309,-9.1449042,-3.045065,-1.3133763,2.8049989,1.3785464,0.233612
 5,-1.5425755,-3.9157641,-4.495516,1.3785464,1.2131909,0.1348762,1.3212
 574,0.5417228,0.6957299,-4.6160293,-2.665066,2.9443309,9.1449048,-3.04
 50647,1.3133762,2.8049991,-1.3785463,-0.2336125,-1.5425754,3.9157641,-
 4.4955154,-1.3785463,1.2131907,0.1348762,1.3212575,-0.5417228,0.695729
 8,4.6160295,-2.6650656,2.9443309\HyperPolar=-0.0000243,224.1321384,0.0
 000243,-224.1321384,-149.4853215,0.,-149.4853215,0.,0.,-242.3533843\Qu
 adrupole=-4.1949096,-4.1949096,8.3898192,0.,0.,0.\PG=C03V [C3(Al1),3SG
 V(Cl1)]\NImag=0\\0.12984581,0.,0.12984580,0.,0.,0.08381210,-0.00899082
 ,0.,0.,0.00895961,0.,-0.07757305,-0.03171061,0.,0.08786457,0.,-0.03451
 645,-0.02793737,0.,0.03119212,0.01848971,-0.06042749,-0.02969698,0.027
 46221,0.00001561,-0.00377674,-0.00125901,0.06813833,-0.02969698,-0.026
 13638,0.01585531,-0.00516303,-0.00514577,0.00166216,0.03416685,0.02868
 585,0.02989212,0.01725823,-0.02793737,-0.00206898,0.00025925,0.0047238
 3,-0.02701317,-0.01559606,0.01848971,-0.06042750,0.02969698,-0.0274622
 1,0.00001561,0.00377674,0.00125901,-0.00772646,0.00069314,-0.00080997,
 0.06813833,0.02969698,-0.02613638,0.01585531,0.00516303,-0.00514577,0.
 00166216,-0.00069314,0.00259630,-0.00192142,-0.03416685,0.02868585,-0.
 02989213,0.01725822,-0.02793737,0.00206898,0.00025925,0.00472383,0.000
 80997,-0.00192142,0.00472383,0.02701317,-0.01559606,0.01848971\\0.,0.,
 -0.00002154,0.,0.00000548,0.00000718,-0.00000475,-0.00000274,0.0000071
 8,0.00000475,-0.00000274,0.00000718\\\@


 BOOKS ARE LIGHTHOUSES ERECTED IN THE GREAT SEA OF TIME.
     -- E.P.WHIPPLE
 Job cpu time:       0 days  0 hours  0 minutes  1.4 seconds.
 Elapsed time:       0 days  0 hours  0 minutes  1.4 seconds.
 File lengths (MBytes):  RWF=      6 Int=      0 D2E=      0 Chk=      1 Scr=      1
 Normal termination of Gaussian 16 at Fri Jun 13 21:40:38 2025.
