 Entering Gaussian System, Link 0=g16
 Input=/home/gaussian/Documents/Summer_Internship/Acid_Base_adduct/Acid/AlCl3/MX3-/MX3_planar_ion_sp.com
 Output=/home/gaussian/Documents/Summer_Internship/Acid_Base_adduct/Acid/AlCl3/MX3-/MX3_planar_ion_sp.log
 Initial command:
 /usr/local/g16/l1.exe "/home/gaussian/tmp/Gau-31819.inp" -scrdir="/home/gaussian/tmp/"
 Entering Link 1 = /usr/local/g16/l1.exe PID=     31822.
  
 Copyright (c) 1988-2017, Gaussian, Inc.  All Rights Reserved.
  
 This is part of the Gaussian(R) 16 program.  It is based on
 the Gaussian(R) 09 system (copyright 2009, Gaussian, Inc.),
 the Gaussian(R) 03 system (copyright 2003, Gaussian, Inc.),
 the Gaussian(R) 98 system (copyright 1998, Gaussian, Inc.),
 the Gaussian(R) 94 system (copyright 1995, Gaussian, Inc.),
 the Gaussian 92(TM) system (copyright 1992, Gaussian, Inc.),
 the Gaussian 90(TM) system (copyright 1990, Gaussian, Inc.),
 the Gaussian 88(TM) system (copyright 1988, Gaussian, Inc.),
 the Gaussian 86(TM) system (copyright 1986, Carnegie Mellon
 University), and the Gaussian 82(TM) system (copyright 1983,
 Carnegie Mellon University). Gaussian is a federally registered
 trademark of Gaussian, Inc.
  
 This software contains proprietary and confidential information,
 including trade secrets, belonging to Gaussian, Inc.
  
 This software is provided under written license and may be
 used, copied, transmitted, or stored only in accord with that
 written license.
  
 The following legend is applicable only to US Government
 contracts under FAR:
  
                    RESTRICTED RIGHTS LEGEND
  
 Use, reproduction and disclosure by the US Government is
 subject to restrictions as set forth in subparagraphs (a)
 and (c) of the Commercial Computer Software - Restricted
 Rights clause in FAR 52.227-19.
  
 Gaussian, Inc.
 340 Quinnipiac St., Bldg. 40, Wallingford CT 06492
  
  
 ---------------------------------------------------------------
 Warning -- This program may not be used in any manner that
 competes with the business of Gaussian, Inc. or will provide
 assistance to any competitor of Gaussian, Inc.  The licensee
 of this program is prohibited from giving any competitor of
 Gaussian, Inc. access to this program.  By using this program,
 the user acknowledges that Gaussian, Inc. is engaged in the
 business of creating and licensing software in the field of
 computational chemistry and represents and warrants to the
 licensee that it is not a competitor of Gaussian, Inc. and that
 it will not use this program in any manner prohibited above.
 ---------------------------------------------------------------
  

 Cite this work as:
 Gaussian 16, Revision B.01,
 M. J. Frisch, G. W. Trucks, H. B. Schlegel, G. E. Scuseria, 
 M. A. Robb, J. R. Cheeseman, G. Scalmani, V. Barone, 
 G. A. Petersson, H. Nakatsuji, X. Li, M. Caricato, A. V. Marenich, 
 J. Bloino, B. G. Janesko, R. Gomperts, B. Mennucci, H. P. Hratchian, 
 J. V. Ortiz, A. F. Izmaylov, J. L. Sonnenberg, D. Williams-Young, 
 F. Ding, F. Lipparini, F. Egidi, J. Goings, B. Peng, A. Petrone, 
 T. Henderson, D. Ranasinghe, V. G. Zakrzewski, J. Gao, N. Rega, 
 G. Zheng, W. Liang, M. Hada, M. Ehara, K. Toyota, R. Fukuda, 
 J. Hasegawa, M. Ishida, T. Nakajima, Y. Honda, O. Kitao, H. Nakai, 
 T. Vreven, K. Throssell, J. A. Montgomery, Jr., J. E. Peralta, 
 F. Ogliaro, M. J. Bearpark, J. J. Heyd, E. N. Brothers, K. N. Kudin, 
 V. N. Staroverov, T. A. Keith, R. Kobayashi, J. Normand, 
 K. Raghavachari, A. P. Rendell, J. C. Burant, S. S. Iyengar, 
 J. Tomasi, M. Cossi, J. M. Millam, M. Klene, C. Adamo, R. Cammi, 
 J. W. Ochterski, R. L. Martin, K. Morokuma, O. Farkas, 
 J. B. Foresman, and D. J. Fox, Gaussian, Inc., Wallingford CT, 2016.
 
 ******************************************
 Gaussian 16:  EM64L-G16RevB.01 20-Dec-2017
                13-Jun-2025 
 ******************************************
 %chk=MX3_planar_ion_sp.chk
 -------------------------------------
 # hf/3-21g pop=full geom=connectivity
 -------------------------------------
 1/38=1,57=2,172=1/1;
 2/12=2,17=6,18=5,40=1/2;
 3/5=5,11=9,25=1,30=1/1,2,3;
 4//1;
 5/5=2,38=5/2;
 6/7=3,28=1/1;
 99/5=1,9=1/99;
 -------------------
 Title Card Required
 -------------------
 Symbolic Z-matrix:
 Charge = -1 Multiplicity = 2
 Al                    0.        0.        0.67729 
 Cl                    0.        2.13133  -0.17264 
 Cl                    1.84579  -1.06567  -0.17264 
 Cl                   -1.84579  -1.06567  -0.17264 
 
                          Input orientation:                          
 ---------------------------------------------------------------------
 Center     Atomic      Atomic             Coordinates (Angstroms)
 Number     Number       Type             X           Y           Z
 ---------------------------------------------------------------------
      1         13           0        0.000000    0.000000    0.677292
      2         17           0        0.000000    2.131332   -0.172643
      3         17           0        1.845788   -1.065666   -0.172643
      4         17           0       -1.845788   -1.065666   -0.172643
 ---------------------------------------------------------------------
                    Distance matrix (angstroms):
                    1          2          3          4
     1  Al   0.000000
     2  Cl   2.294551   0.000000
     3  Cl   2.294552   3.691575   0.000000
     4  Cl   2.294552   3.691575   3.691576   0.000000
 Stoichiometry    AlCl3(1-,2)
 Framework group  C3V[C3(Al),3SGV(Cl)]
 Deg. of freedom     2
 Full point group                 C3V     NOp   6
 Largest Abelian subgroup         CS      NOp   2
 Largest concise Abelian subgroup CS      NOp   2
                         Standard orientation:                         
 ---------------------------------------------------------------------
 Center     Atomic      Atomic             Coordinates (Angstroms)
 Number     Number       Type             X           Y           Z
 ---------------------------------------------------------------------
      1         13           0        0.000000    0.000000    0.677292
      2         17           0       -0.000000    2.131332   -0.172643
      3         17           0        1.845788   -1.065666   -0.172643
      4         17           0       -1.845788   -1.065666   -0.172643
 ---------------------------------------------------------------------
 Rotational constants (GHZ):           1.9914318           1.9914318           1.0605041
 Standard basis: 3-21G (6D, 7F)
 There are    33 symmetry adapted cartesian basis functions of A'  symmetry.
 There are    19 symmetry adapted cartesian basis functions of A"  symmetry.
 There are    33 symmetry adapted basis functions of A'  symmetry.
 There are    19 symmetry adapted basis functions of A"  symmetry.
    52 basis functions,   108 primitive gaussians,    52 cartesian basis functions
    33 alpha electrons       32 beta electrons
       nuclear repulsion energy       277.1853875007 Hartrees.
 NAtoms=    4 NActive=    4 NUniq=    2 SFac= 4.00D+00 NAtFMM=   60 NAOKFM=F Big=F
 Integral buffers will be    131072 words long.
 Raffenetti 2 integral format.
 Two-electron integral symmetry is turned on.
 One-electron integrals computed using PRISM.
 NBasis=    52 RedAO= T EigKep=  2.99D-02  NBF=    33    19
 NBsUse=    52 1.00D-06 EigRej= -1.00D+00 NBFU=    33    19
 ExpMin= 6.39D-02 ExpMax= 1.38D+03 ExpMxC= 1.38D+03 IAcc=3 IRadAn=         5 AccDes= 0.00D+00
 Harris functional with IExCor=  205 and IRadAn=       5 diagonalized for initial guess.
 HarFok:  IExCor=  205 AccDes= 0.00D+00 IRadAn=         5 IDoV= 1 UseB2=F ITyADJ=14
 ICtDFT=  3500011 ScaDFX=  1.000000  1.000000  1.000000  1.000000
 FoFCou: FMM=F IPFlag=           0 FMFlag=      100000 FMFlg1=           0
         NFxFlg=           0 DoJE=T BraDBF=F KetDBF=T FulRan=T
         wScrn=  0.000000 ICntrl=       500 IOpCl=  0 I1Cent=   200000004 NGrid=           0
         NMat0=    1 NMatS0=      1 NMatT0=    0 NMatD0=    1 NMtDS0=    0 NMtDT0=    0
 Petite list used in FoFCou.
 Initial guess orbital symmetries:
 Alpha Orbitals:
       Occupied  (A1) (E) (E) (A1) (A1) (E) (E) (E) (E) (A1) (E)
                 (E) (A2) (A1) (E) (E) (A1) (E) (E) (A1) (A1) (E)
                 (E) (A1) (E) (E) (A1) (E) (E) (E) (E) (A2) (A1)
       Virtual   (A1) (E) (E) (A1) (A1) (E) (E) (E) (E) (A1) (E)
                 (E) (A1) (A2) (E) (E) (E) (E) (A1)
 Beta  Orbitals:
       Occupied  (A1) (E) (E) (A1) (A1) (E) (E) (E) (E) (A1) (E)
                 (E) (A2) (A1) (E) (E) (A1) (E) (E) (A1) (A1) (E)
                 (E) (A1) (E) (E) (A1) (E) (E) (E) (E) (A2)
       Virtual   (A1) (A1) (E) (E) (A1) (A1) (E) (E) (E) (E) (A1)
                 (E) (E) (A1) (A2) (E) (E) (E) (E) (A1)
 The electronic state of the initial guess is 2-A1.
 Initial guess <Sx>= 0.0000 <Sy>= 0.0000 <Sz>= 0.5000 <S**2>= 0.7500 S= 0.5000
 Keep R1 and R2 ints in memory in symmetry-blocked form, NReq=1772427.
 Requested convergence on RMS density matrix=1.00D-08 within 128 cycles.
 Requested convergence on MAX density matrix=1.00D-06.
 Requested convergence on             energy=1.00D-06.
 No special actions if energy rises.
 SCF Done:  E(UHF) =  -1612.77445266     A.U. after   12 cycles
            NFock= 12  Conv=0.46D-08     -V/T= 2.0010
 <Sx>= 0.0000 <Sy>= 0.0000 <Sz>= 0.5000 <S**2>= 0.7522 S= 0.5011
 <L.S>= 0.000000000000E+00
 Annihilation of the first spin contaminant:
 S**2 before annihilation     0.7522,   after     0.7500

 **********************************************************************

            Population analysis using the SCF Density.

 **********************************************************************

 Orbital symmetries:
 Alpha Orbitals:
       Occupied  (A1) (E) (E) (A1) (A1) (E) (E) (E) (E) (A1) (A1)
                 (E) (E) (A2) (E) (E) (A1) (A1) (E) (E) (A1) (E)
                 (E) (A1) (E) (E) (A1) (E) (E) (E) (E) (A2) (A1)
       Virtual   (E) (E) (A1) (A1) (A1) (E) (E) (E) (E) (A1) (E)
                 (E) (A1) (A2) (E) (E) (E) (E) (A1)
 Beta  Orbitals:
       Occupied  (A1) (E) (E) (A1) (A1) (E) (E) (E) (E) (A1) (A2)
                 (E) (E) (A1) (E) (E) (A1) (E) (E) (A1) (A1) (E)
                 (E) (A1) (E) (E) (A1) (E) (E) (E) (E) (A2)
       Virtual   (A1) (E) (E) (A1) (A1) (A1) (E) (E) (E) (E) (A1)
                 (E) (E) (A1) (A2) (E) (E) (E) (E) (A1)
 The electronic state is 2-A1.
 Alpha  occ. eigenvalues -- -103.91671-103.91637-103.91637 -57.98991 -10.30807
 Alpha  occ. eigenvalues --  -10.30697 -10.30697  -7.77153  -7.77153  -7.77142
 Alpha  occ. eigenvalues --   -7.76793  -7.76793  -7.76793  -7.76765  -7.76749
 Alpha  occ. eigenvalues --   -7.76749  -4.79081  -3.09474  -3.09081  -3.09081
 Alpha  occ. eigenvalues --   -0.90871  -0.89229  -0.89229  -0.42335  -0.33446
 Alpha  occ. eigenvalues --   -0.33446  -0.31561  -0.29500  -0.29500  -0.27949
 Alpha  occ. eigenvalues --   -0.27949  -0.27334  -0.14960
 Alpha virt. eigenvalues --    0.26969   0.26969   0.30276   0.42418   0.49152
 Alpha virt. eigenvalues --    0.51564   0.51564   0.91435   0.91435   0.93883
 Alpha virt. eigenvalues --    0.94585   0.94585   1.01536   1.04781   1.07587
 Alpha virt. eigenvalues --    1.07587   1.12078   1.12078   1.29027
  Beta  occ. eigenvalues -- -103.91570-103.91537-103.91537 -57.98453 -10.30689
  Beta  occ. eigenvalues --  -10.30580 -10.30580  -7.76863  -7.76863  -7.76854
  Beta  occ. eigenvalues --   -7.76712  -7.76705  -7.76705  -7.76643  -7.76637
  Beta  occ. eigenvalues --   -7.76637  -4.78006  -3.08678  -3.08678  -3.08178
  Beta  occ. eigenvalues --   -0.89997  -0.88398  -0.88398  -0.39502  -0.32225
  Beta  occ. eigenvalues --   -0.32225  -0.30027  -0.28671  -0.28671  -0.27758
  Beta  occ. eigenvalues --   -0.27758  -0.27203
  Beta virt. eigenvalues --    0.18045   0.30500   0.30500   0.31279   0.45984
  Beta virt. eigenvalues --    0.52380   0.53849   0.53849   0.91618   0.91618
  Beta virt. eigenvalues --    0.94126   0.95041   0.95041   1.02565   1.04905
  Beta virt. eigenvalues --    1.07880   1.07880   1.13020   1.13020   1.29451
     Alpha Molecular Orbital Coefficients:
                           1         2         3         4         5
                        (A1)--O   (E)--O    (E)--O    (A1)--O   (A1)--O
     Eigenvalues --  -103.91671-103.91637-103.91637 -57.98991 -10.30807
   1 1   Al 1S         -0.00001  -0.00000   0.00000   0.98853   0.00012
   2        2S          0.00043   0.00000   0.00000   0.04430  -0.00236
   3        2PX         0.00000   0.00000  -0.00002   0.00000   0.00000
   4        2PY         0.00000  -0.00002   0.00000  -0.00000  -0.00000
   5        2PZ        -0.00005  -0.00000   0.00000  -0.00020   0.00028
   6        3S          0.00107   0.00000   0.00000  -0.01086  -0.00620
   7        3PX         0.00000   0.00000  -0.00055   0.00000   0.00000
   8        3PY         0.00000  -0.00055   0.00000   0.00000  -0.00000
   9        3PZ         0.00063   0.00000   0.00000   0.00101  -0.00357
  10        4S         -0.00862  -0.00000   0.00000  -0.00102   0.04895
  11        4PX         0.00000   0.00000  -0.00266   0.00000   0.00000
  12        4PY         0.00000  -0.00266   0.00000   0.00000  -0.00000
  13        4PZ         0.00350   0.00000   0.00000   0.00201  -0.01975
  14 2   Cl 1S          0.56919   0.80497   0.00000  -0.00002  -0.17656
  15        2S          0.03074   0.04335   0.00000   0.00011   0.56711
  16        2PX         0.00000   0.00000   0.00003   0.00000   0.00000
  17        2PY        -0.00015  -0.00014   0.00000  -0.00004  -0.00321
  18        2PZ         0.00000   0.00007   0.00000  -0.00002   0.00169
  19        3S         -0.01213  -0.01536   0.00000  -0.00187   0.08811
  20        3PX         0.00000   0.00000  -0.00016   0.00000   0.00000
  21        3PY         0.00068   0.00051   0.00000   0.00044  -0.00441
  22        3PZ         0.00003  -0.00030   0.00000   0.00004   0.00014
  23        4S          0.00958   0.00936   0.00000   0.00367  -0.05517
  24        4PX         0.00000   0.00000   0.00061   0.00000   0.00000
  25        4PY        -0.00247  -0.00130   0.00000  -0.00256   0.01405
  26        4PZ         0.00003   0.00082   0.00000   0.00037  -0.00031
  27 3   Cl 1S          0.56919  -0.40249   0.69713  -0.00002  -0.17656
  28        2S          0.03074  -0.02167   0.03754   0.00011   0.56711
  29        2PX        -0.00013   0.00007  -0.00010  -0.00003  -0.00278
  30        2PY         0.00007  -0.00001   0.00007   0.00002   0.00160
  31        2PZ         0.00000  -0.00004   0.00006  -0.00002   0.00169
  32        3S         -0.01213   0.00768  -0.01330  -0.00187   0.08811
  33        3PX         0.00059  -0.00029   0.00034   0.00038  -0.00382
  34        3PY        -0.00034   0.00001  -0.00029  -0.00022   0.00220
  35        3PZ         0.00003   0.00015  -0.00026   0.00004   0.00014
  36        4S          0.00958  -0.00468   0.00810   0.00367  -0.05517
  37        4PX        -0.00214   0.00083  -0.00082  -0.00222   0.01217
  38        4PY         0.00124   0.00013   0.00083   0.00128  -0.00703
  39        4PZ         0.00003  -0.00041   0.00071   0.00037  -0.00031
  40 4   Cl 1S          0.56919  -0.40249  -0.69713  -0.00002  -0.17656
  41        2S          0.03074  -0.02167  -0.03754   0.00011   0.56711
  42        2PX         0.00013  -0.00007  -0.00010   0.00003   0.00278
  43        2PY         0.00007  -0.00001  -0.00007   0.00002   0.00160
  44        2PZ         0.00000  -0.00004  -0.00006  -0.00002   0.00169
  45        3S         -0.01213   0.00768   0.01330  -0.00187   0.08811
  46        3PX        -0.00059   0.00029   0.00034  -0.00038   0.00382
  47        3PY        -0.00034   0.00001   0.00029  -0.00022   0.00220
  48        3PZ         0.00003   0.00015   0.00026   0.00004   0.00014
  49        4S          0.00958  -0.00468  -0.00810   0.00367  -0.05517
  50        4PX         0.00214  -0.00083  -0.00082   0.00222  -0.01217
  51        4PY         0.00124   0.00013  -0.00083   0.00128  -0.00703
  52        4PZ         0.00003  -0.00041  -0.00071   0.00037  -0.00031
                           6         7         8         9        10
                        (E)--O    (E)--O    (E)--O    (E)--O    (A1)--O
     Eigenvalues --   -10.30697 -10.30697  -7.77153  -7.77153  -7.77142
   1 1   Al 1S          0.00000   0.00000   0.00000   0.00000   0.00001
   2        2S         -0.00000   0.00000  -0.00000   0.00000  -0.00033
   3        2PX         0.00000   0.00006   0.00000  -0.00022   0.00000
   4        2PY         0.00006   0.00000  -0.00022   0.00000   0.00000
   5        2PZ         0.00000   0.00000   0.00000   0.00000   0.00004
   6        3S         -0.00000   0.00000  -0.00000   0.00000  -0.00336
   7        3PX         0.00000   0.00318   0.00000  -0.00401   0.00000
   8        3PY         0.00318   0.00000  -0.00401   0.00000   0.00000
   9        3PZ        -0.00000   0.00000   0.00000   0.00000   0.00259
  10        4S          0.00000   0.00000  -0.00000   0.00000  -0.01488
  11        4PX         0.00000   0.01536   0.00000  -0.00437   0.00000
  12        4PY         0.01536   0.00000  -0.00437   0.00000   0.00000
  13        4PZ        -0.00000   0.00000   0.00000   0.00000   0.00351
  14 2   Cl 1S         -0.24982   0.00000  -0.00201   0.00000  -0.00143
  15        2S          0.80273   0.00000   0.00698   0.00000   0.00497
  16        2PX         0.00000  -0.00011   0.00000   0.00504   0.00000
  17        2PY        -0.00483   0.00000   0.67387   0.00000   0.47534
  18        2PZ         0.00214   0.00000  -0.42163   0.00000  -0.30013
  19        3S          0.11492   0.00000  -0.00448   0.00000  -0.00416
  20        3PX         0.00000   0.00090   0.00000   0.00047   0.00000
  21        3PY        -0.00381   0.00000   0.05703   0.00000   0.04005
  22        3PZ         0.00206   0.00000  -0.03503   0.00000  -0.02476
  23        4S         -0.05494   0.00000   0.00774   0.00000   0.00876
  24        4PX         0.00000  -0.00349   0.00000   0.00035   0.00000
  25        4PY         0.00768   0.00000  -0.02089   0.00000  -0.01591
  26        4PZ        -0.00474   0.00000   0.01214   0.00000   0.00829
  27 3   Cl 1S          0.12491  -0.21635   0.00100  -0.00174  -0.00143
  28        2S         -0.40136   0.69518  -0.00349   0.00605   0.00497
  29        2PX         0.00204  -0.00365  -0.28961   0.50666   0.41166
  30        2PY        -0.00129   0.00204   0.17225  -0.28961  -0.23767
  31        2PZ        -0.00107   0.00186   0.21082  -0.36515  -0.30013
  32        3S         -0.05746   0.09952   0.00224  -0.00388  -0.00416
  33        3PX         0.00204  -0.00263  -0.02449   0.04289   0.03468
  34        3PY        -0.00028   0.00204   0.01461  -0.02449  -0.02003
  35        3PZ        -0.00103   0.00178   0.01752  -0.03034  -0.02476
  36        4S          0.02747  -0.04758  -0.00387   0.00671   0.00876
  37        4PX        -0.00484   0.00489   0.00920  -0.01558  -0.01378
  38        4PY        -0.00070  -0.00484  -0.00496   0.00920   0.00796
  39        4PZ         0.00237  -0.00411  -0.00607   0.01052   0.00829
  40 4   Cl 1S          0.12491   0.21635   0.00100   0.00174  -0.00143
  41        2S         -0.40136  -0.69518  -0.00349  -0.00605   0.00497
  42        2PX        -0.00204  -0.00365   0.28961   0.50666  -0.41166
  43        2PY        -0.00129  -0.00204   0.17225   0.28961  -0.23767
  44        2PZ        -0.00107  -0.00186   0.21082   0.36515  -0.30013
  45        3S         -0.05746  -0.09952   0.00224   0.00388  -0.00416
  46        3PX        -0.00204  -0.00263   0.02449   0.04289  -0.03468
  47        3PY        -0.00028  -0.00204   0.01461   0.02449  -0.02003
  48        3PZ        -0.00103  -0.00178   0.01752   0.03034  -0.02476
  49        4S          0.02747   0.04758  -0.00387  -0.00671   0.00876
  50        4PX         0.00484   0.00489  -0.00920  -0.01558   0.01378
  51        4PY        -0.00070   0.00484  -0.00496  -0.00920   0.00796
  52        4PZ         0.00237   0.00411  -0.00607  -0.01052   0.00829
                          11        12        13        14        15
                        (A1)--O   (E)--O    (E)--O    (A2)--O   (E)--O
     Eigenvalues --    -7.76793  -7.76793  -7.76793  -7.76765  -7.76749
   1 1   Al 1S         -0.00002   0.00000   0.00000   0.00000  -0.00000
   2        2S          0.00051  -0.00000   0.00000   0.00000   0.00000
   3        2PX         0.00000   0.00000   0.00000  -0.00000   0.00000
   4        2PY         0.00000   0.00000   0.00000   0.00000   0.00006
   5        2PZ         0.00004  -0.00000   0.00000   0.00000   0.00000
   6        3S          0.00164  -0.00000   0.00000   0.00000   0.00000
   7        3PX         0.00000   0.00000  -0.00114  -0.00000   0.00000
   8        3PY        -0.00000  -0.00114   0.00000   0.00000  -0.00011
   9        3PZ         0.00027  -0.00000   0.00000   0.00000   0.00000
  10        4S         -0.01224   0.00000   0.00000   0.00000  -0.00000
  11        4PX         0.00000   0.00000   0.00678  -0.00000   0.00000
  12        4PY         0.00000   0.00678   0.00000   0.00000   0.00685
  13        4PZ         0.01140  -0.00000   0.00000   0.00000   0.00000
  14 2   Cl 1S         -0.00026  -0.00023   0.00000   0.00000   0.00014
  15        2S          0.00100   0.00078   0.00000   0.00000  -0.00051
  16        2PX         0.00000   0.00000   0.30018   0.56242   0.00000
  17        2PY         0.30008   0.38882   0.00000   0.00000  -0.16328
  18        2PZ         0.47565   0.62552   0.00000   0.00000  -0.25230
  19        3S         -0.00327   0.00064   0.00000   0.00000   0.00149
  20        3PX         0.00000   0.00000   0.02526   0.04608   0.00000
  21        3PY         0.02512   0.03227   0.00000   0.00000  -0.01302
  22        3PZ         0.03884   0.05096   0.00000   0.00000  -0.01979
  23        4S          0.00795  -0.00314   0.00000   0.00000  -0.00431
  24        4PX         0.00000   0.00000  -0.00961  -0.01440   0.00000
  25        4PY        -0.01073  -0.00997   0.00000   0.00000   0.00417
  26        4PZ        -0.01239  -0.01609   0.00000   0.00000   0.00432
  27 3   Cl 1S         -0.00026   0.00011  -0.00020  -0.00000  -0.00007
  28        2S          0.00100  -0.00039   0.00068   0.00000   0.00025
  29        2PX         0.25988  -0.03838   0.36666  -0.28121   0.38968
  30        2PY        -0.15004   0.32234  -0.03838  -0.48707   0.51166
  31        2PZ         0.47565  -0.31276   0.54172   0.00000   0.12615
  32        3S         -0.00327  -0.00032   0.00056  -0.00000  -0.00075
  33        3PX         0.02175  -0.00303   0.03052  -0.02304   0.03147
  34        3PY        -0.01256   0.02702  -0.00303  -0.03990   0.04149
  35        3PZ         0.03884  -0.02548   0.04413   0.00000   0.00990
  36        4S          0.00795   0.00157  -0.00272   0.00000   0.00216
  37        4PX        -0.00929   0.00016  -0.00988   0.00720  -0.00975
  38        4PY         0.00536  -0.00970   0.00016   0.01247  -0.01272
  39        4PZ        -0.01239   0.00804  -0.01393  -0.00000  -0.00216
  40 4   Cl 1S         -0.00026   0.00011   0.00020   0.00000  -0.00007
  41        2S          0.00100  -0.00039  -0.00068  -0.00000   0.00025
  42        2PX        -0.25988   0.03838   0.36666  -0.28121  -0.38968
  43        2PY        -0.15004   0.32234   0.03838   0.48707   0.51166
  44        2PZ         0.47565  -0.31276  -0.54172  -0.00000   0.12615
  45        3S         -0.00327  -0.00032  -0.00056   0.00000  -0.00075
  46        3PX        -0.02175   0.00303   0.03052  -0.02304  -0.03147
  47        3PY        -0.01256   0.02702   0.00303   0.03990   0.04149
  48        3PZ         0.03884  -0.02548  -0.04413  -0.00000   0.00990
  49        4S          0.00795   0.00157   0.00272  -0.00000   0.00216
  50        4PX         0.00929  -0.00016  -0.00988   0.00720   0.00975
  51        4PY         0.00536  -0.00970  -0.00016  -0.01247  -0.01272
  52        4PZ        -0.01239   0.00804   0.01393   0.00000  -0.00216
                          16        17        18        19        20
                        (E)--O    (A1)--O   (A1)--O   (E)--O    (E)--O
     Eigenvalues --    -7.76749  -4.79081  -3.09474  -3.09081  -3.09081
   1 1   Al 1S          0.00000  -0.28416  -0.00095   0.00000  -0.00000
   2        2S          0.00000   1.01089   0.00402   0.00000   0.00000
   3        2PX         0.00006   0.00000   0.00000   0.97791   0.00000
   4        2PY         0.00000   0.00000  -0.00000   0.00000   0.97791
   5        2PZ         0.00000  -0.00161   0.97914   0.00000   0.00000
   6        3S          0.00000   0.09093  -0.00321   0.00000  -0.00000
   7        3PX        -0.00011   0.00000   0.00000   0.09204   0.00000
   8        3PY         0.00000   0.00000  -0.00000   0.00000   0.09204
   9        3PZ         0.00000  -0.00541   0.08553   0.00000   0.00000
  10        4S          0.00000  -0.02281  -0.01044   0.00000   0.00000
  11        4PX         0.00685   0.00000   0.00000  -0.02747   0.00000
  12        4PY         0.00000   0.00000   0.00000   0.00000  -0.02747
  13        4PZ         0.00000  -0.00236  -0.02517   0.00000  -0.00000
  14 2   Cl 1S          0.00000   0.00004  -0.00004   0.00000   0.00003
  15        2S          0.00000  -0.00012   0.00015   0.00000   0.00003
  16        2PX         0.73664   0.00000   0.00000  -0.00001   0.00000
  17        2PY         0.00000   0.00010  -0.00008   0.00000   0.00001
  18        2PZ         0.00000   0.00002  -0.00000   0.00000   0.00002
  19        3S          0.00000   0.00377  -0.00239   0.00000   0.00100
  20        3PX         0.05966   0.00000   0.00000   0.00004   0.00000
  21        3PY         0.00000  -0.00111   0.00015   0.00000   0.00078
  22        3PZ         0.00000   0.00016   0.00009   0.00000  -0.00038
  23        4S          0.00000  -0.00651   0.00589   0.00000  -0.00306
  24        4PX        -0.01836   0.00000   0.00000  -0.00042   0.00000
  25        4PY         0.00000   0.00854  -0.00620   0.00000   0.01031
  26        4PZ         0.00000  -0.00240   0.00189   0.00000  -0.00427
  27 3   Cl 1S          0.00012   0.00004  -0.00004   0.00003  -0.00002
  28        2S         -0.00044  -0.00012   0.00015   0.00002  -0.00001
  29        2PX         0.06170   0.00009  -0.00007   0.00001  -0.00001
  30        2PY         0.38968  -0.00005   0.00004  -0.00001  -0.00000
  31        2PZ        -0.21850   0.00002  -0.00000   0.00002  -0.00001
  32        3S          0.00129   0.00377  -0.00239   0.00086  -0.00050
  33        3PX         0.00515  -0.00096   0.00013   0.00059  -0.00032
  34        3PY         0.03147   0.00055  -0.00007  -0.00032   0.00023
  35        3PZ        -0.01714   0.00016   0.00009  -0.00032   0.00019
  36        4S         -0.00374  -0.00651   0.00589  -0.00265   0.00153
  37        4PX        -0.00146   0.00739  -0.00537   0.00762  -0.00465
  38        4PY        -0.00975  -0.00427   0.00310  -0.00465   0.00226
  39        4PZ         0.00374  -0.00240   0.00189  -0.00370   0.00213
  40 4   Cl 1S         -0.00012   0.00004  -0.00004  -0.00003  -0.00002
  41        2S          0.00044  -0.00012   0.00015  -0.00002  -0.00001
  42        2PX         0.06170  -0.00009   0.00007   0.00001   0.00001
  43        2PY        -0.38968  -0.00005   0.00004   0.00001  -0.00000
  44        2PZ         0.21850   0.00002  -0.00000  -0.00002  -0.00001
  45        3S         -0.00129   0.00377  -0.00239  -0.00086  -0.00050
  46        3PX         0.00515   0.00096  -0.00013   0.00059   0.00032
  47        3PY        -0.03147   0.00055  -0.00007   0.00032   0.00023
  48        3PZ         0.01714   0.00016   0.00009   0.00032   0.00019
  49        4S          0.00374  -0.00651   0.00589   0.00265   0.00153
  50        4PX        -0.00146  -0.00739   0.00537   0.00762   0.00465
  51        4PY         0.00975  -0.00427   0.00310   0.00465   0.00226
  52        4PZ        -0.00374  -0.00240   0.00189   0.00370   0.00213
                          21        22        23        24        25
                        (A1)--O   (E)--O    (E)--O    (A1)--O   (E)--O
     Eigenvalues --    -0.90871  -0.89229  -0.89229  -0.42335  -0.33446
   1 1   Al 1S          0.01397   0.00000   0.00000   0.04352   0.00000
   2        2S         -0.06457   0.00000  -0.00000  -0.21051   0.00000
   3        2PX         0.00000  -0.03726   0.00000   0.00000  -0.09890
   4        2PY         0.00000   0.00000  -0.03726   0.00000   0.00000
   5        2PZ         0.01941   0.00000   0.00000   0.00584   0.00000
   6        3S          0.10311   0.00000   0.00000   0.37367   0.00000
   7        3PX         0.00000   0.04986   0.00000   0.00000   0.19682
   8        3PY        -0.00000   0.00000   0.04986  -0.00000   0.00000
   9        3PZ        -0.02346   0.00000  -0.00000   0.01074   0.00000
  10        4S         -0.03758   0.00000  -0.00000   0.15210   0.00000
  11        4PX         0.00000  -0.03024   0.00000   0.00000   0.01200
  12        4PY        -0.00000   0.00000  -0.03024  -0.00000   0.00000
  13        4PZ         0.02614   0.00000   0.00000   0.06622   0.00000
  14 2   Cl 1S          0.04448   0.00000   0.06480  -0.01230   0.00000
  15        2S         -0.26156   0.00000  -0.38129   0.07397   0.00000
  16        2PX         0.00000  -0.00137   0.00000   0.00000  -0.09389
  17        2PY         0.01628   0.00000   0.01726   0.10772   0.00000
  18        2PZ        -0.00690   0.00000  -0.00886  -0.04435   0.00000
  19        3S          0.31451   0.00000   0.46218  -0.10016   0.00000
  20        3PX         0.00000   0.00239   0.00000   0.00000   0.20091
  21        3PY        -0.03229   0.00000  -0.03396  -0.22681   0.00000
  22        3PZ         0.01468   0.00000   0.01787   0.09491   0.00000
  23        4S          0.31641   0.00000   0.45414  -0.10174   0.00000
  24        4PX         0.00000   0.00544   0.00000   0.00000   0.17820
  25        4PY        -0.03334   0.00000  -0.03569  -0.18783   0.00000
  26        4PZ         0.00904   0.00000   0.01814   0.06539   0.00000
  27 3   Cl 1S          0.04448   0.05612  -0.03240  -0.01230  -0.00724
  28        2S         -0.26156  -0.33021   0.19064   0.07397   0.04377
  29        2PX         0.01410   0.01260  -0.00807   0.09329   0.09553
  30        2PY        -0.00814  -0.00807   0.00329  -0.05386  -0.10936
  31        2PZ        -0.00690  -0.00768   0.00443  -0.04435  -0.08490
  32        3S          0.31451   0.40026  -0.23109  -0.10016  -0.06365
  33        3PX        -0.02796  -0.02487   0.01574  -0.19642  -0.20129
  34        3PY         0.01614   0.01574  -0.00670   0.11340   0.23221
  35        3PZ         0.01468   0.01547  -0.00893   0.09491   0.18136
  36        4S          0.31641   0.39330  -0.22707  -0.10174  -0.05649
  37        4PX        -0.02887  -0.02540   0.01781  -0.16267  -0.17723
  38        4PY         0.01667   0.01781  -0.00484   0.09392   0.20521
  39        4PZ         0.00904   0.01571  -0.00907   0.06539   0.15528
  40 4   Cl 1S          0.04448  -0.05612  -0.03240  -0.01230   0.00724
  41        2S         -0.26156   0.33021   0.19064   0.07397  -0.04377
  42        2PX        -0.01410   0.01260   0.00807  -0.09329   0.09553
  43        2PY        -0.00814   0.00807   0.00329  -0.05386   0.10936
  44        2PZ        -0.00690   0.00768   0.00443  -0.04435   0.08490
  45        3S          0.31451  -0.40026  -0.23109  -0.10016   0.06365
  46        3PX         0.02796  -0.02487  -0.01574   0.19642  -0.20129
  47        3PY         0.01614  -0.01574  -0.00670   0.11340  -0.23221
  48        3PZ         0.01468  -0.01547  -0.00893   0.09491  -0.18136
  49        4S          0.31641  -0.39330  -0.22707  -0.10174   0.05649
  50        4PX         0.02887  -0.02540  -0.01781   0.16267  -0.17723
  51        4PY         0.01667  -0.01781  -0.00484   0.09392  -0.20521
  52        4PZ         0.00904  -0.01571  -0.00907   0.06539  -0.15528
                          26        27        28        29        30
                        (E)--O    (A1)--O   (E)--O    (E)--O    (E)--O
     Eigenvalues --    -0.33446  -0.31561  -0.29500  -0.29500  -0.27949
   1 1   Al 1S         -0.00000   0.00546   0.00000   0.00000   0.00000
   2        2S          0.00000  -0.02695   0.00000  -0.00000   0.00000
   3        2PX         0.00000   0.00000   0.01166   0.00000   0.01751
   4        2PY         0.09890  -0.00000   0.00000  -0.01166   0.00000
   5        2PZ        -0.00000  -0.06772   0.00000  -0.00000   0.00000
   6        3S         -0.00000   0.05144   0.00000   0.00000   0.00000
   7        3PX         0.00000   0.00000  -0.02048   0.00000  -0.03682
   8        3PY        -0.19682   0.00000   0.00000   0.02048   0.00000
   9        3PZ         0.00000   0.14882   0.00000   0.00000   0.00000
  10        4S          0.00000   0.05631   0.00000   0.00000   0.00000
  11        4PX         0.00000   0.00000   0.04084   0.00000   0.09354
  12        4PY        -0.01200   0.00000   0.00000  -0.04084   0.00000
  13        4PZ         0.00000   0.11114   0.00000   0.00000   0.00000
  14 2   Cl 1S          0.00836   0.00059   0.00000  -0.00115   0.00000
  15        2S         -0.05054  -0.00368   0.00000   0.00680   0.00000
  16        2PX         0.00000   0.00000  -0.16019   0.00000  -0.11548
  17        2PY        -0.15866  -0.06817   0.00000   0.00523   0.00000
  18        2PZ         0.09804  -0.12984   0.00000  -0.15318   0.00000
  19        3S          0.07350   0.00015   0.00000  -0.01808   0.00000
  20        3PX         0.00000   0.00000   0.34164   0.00000   0.24974
  21        3PY         0.33535   0.14666   0.00000  -0.01029   0.00000
  22        3PZ        -0.20941   0.27893   0.00000   0.32656   0.00000
  23        4S          0.06523   0.02187   0.00000   0.01991   0.00000
  24        4PX         0.00000   0.00000   0.32220   0.00000   0.21406
  25        4PY         0.29571   0.11981   0.00000  -0.01544   0.00000
  26        4PZ        -0.17930   0.24412   0.00000   0.31413   0.00000
  27 3   Cl 1S         -0.00418   0.00059   0.00099   0.00057   0.00090
  28        2S          0.02527  -0.00368  -0.00589  -0.00340  -0.00526
  29        2PX         0.10936  -0.05904  -0.04397   0.06710  -0.13982
  30        2PY         0.03075   0.03409  -0.06710   0.12145   0.01405
  31        2PZ        -0.04902  -0.12984   0.13266   0.07659  -0.10971
  32        3S         -0.03675   0.00015   0.01566   0.00904   0.02348
  33        3PX        -0.23221   0.12701   0.09313  -0.14348   0.29791
  34        3PY        -0.06684  -0.07333   0.14348  -0.25880  -0.02781
  35        3PZ         0.10471   0.27893  -0.28281  -0.16328   0.23720
  36        4S         -0.03261   0.02187  -0.01725  -0.00996  -0.04579
  37        4PX        -0.20521   0.10376   0.09213  -0.13283   0.28715
  38        4PY        -0.05973  -0.05991   0.13283  -0.24551  -0.04220
  39        4PZ         0.08965   0.24412  -0.27204  -0.15706   0.20728
  40 4   Cl 1S         -0.00418   0.00059  -0.00099   0.00057  -0.00090
  41        2S          0.02527  -0.00368   0.00589  -0.00340   0.00526
  42        2PX        -0.10936   0.05904  -0.04397  -0.06710  -0.13982
  43        2PY         0.03075   0.03409   0.06710   0.12145  -0.01405
  44        2PZ        -0.04902  -0.12984  -0.13266   0.07659   0.10971
  45        3S         -0.03675   0.00015  -0.01566   0.00904  -0.02348
  46        3PX         0.23221  -0.12701   0.09313   0.14348   0.29791
  47        3PY        -0.06684  -0.07333  -0.14348  -0.25880   0.02781
  48        3PZ         0.10471   0.27893   0.28281  -0.16328  -0.23720
  49        4S         -0.03261   0.02187   0.01725  -0.00996   0.04579
  50        4PX         0.20521  -0.10376   0.09213   0.13283   0.28715
  51        4PY        -0.05973  -0.05991  -0.13283  -0.24551   0.04220
  52        4PZ         0.08965   0.24412   0.27204  -0.15706  -0.20728
                          31        32        33        34        35
                        (E)--O    (A2)--O   (A1)--O   (E)--V    (E)--V
     Eigenvalues --    -0.27949  -0.27334  -0.14960   0.26969   0.26969
   1 1   Al 1S          0.00000   0.00000   0.03443   0.00000   0.00000
   2        2S         -0.00000   0.00000  -0.18206  -0.00000   0.00000
   3        2PX         0.00000   0.00000   0.00000   0.00000  -0.12502
   4        2PY         0.01751   0.00000   0.00000  -0.12502   0.00000
   5        2PZ        -0.00000   0.00000  -0.14142   0.00000   0.00000
   6        3S         -0.00000   0.00000   0.26760  -0.00000   0.00000
   7        3PX         0.00000   0.00000   0.00000   0.00000   0.25565
   8        3PY        -0.03682   0.00000  -0.00000   0.25565   0.00000
   9        3PZ         0.00000   0.00000   0.35228  -0.00000   0.00000
  10        4S          0.00000   0.00000   0.65433   0.00000   0.00000
  11        4PX         0.00000  -0.00000   0.00000   0.00000   1.40042
  12        4PY         0.09354   0.00000   0.00000   1.40042   0.00000
  13        4PZ         0.00000   0.00000   0.25452  -0.00000   0.00000
  14 2   Cl 1S          0.00103   0.00000  -0.00401  -0.01358   0.00000
  15        2S         -0.00608   0.00000   0.02483   0.08636   0.00000
  16        2PX         0.00000  -0.16176   0.00000   0.00000   0.05822
  17        2PY        -0.14793   0.00000  -0.05542  -0.03400   0.00000
  18        2PZ        -0.12668   0.00000   0.08100   0.04592   0.00000
  19        3S          0.02711   0.00000  -0.01402  -0.01723   0.00000
  20        3PX         0.00000   0.34786   0.00000   0.00000  -0.11668
  21        3PY         0.31397   0.00000   0.11861   0.06017   0.00000
  22        3PZ         0.27390   0.00000  -0.17145  -0.09755   0.00000
  23        4S         -0.05288   0.00000  -0.12357  -0.72502   0.00000
  24        4PX         0.00000   0.31940   0.00000   0.00000  -0.30070
  25        4PY         0.31151   0.00000   0.14632   0.31263   0.00000
  26        4PZ         0.23935   0.00000  -0.22437  -0.23400   0.00000
  27 3   Cl 1S         -0.00052   0.00000  -0.00401   0.00679  -0.01176
  28        2S          0.00304  -0.00000   0.02483  -0.04318   0.07479
  29        2PX         0.01405   0.08088  -0.04800   0.03993  -0.01094
  30        2PY        -0.12359   0.14009   0.02771   0.03516   0.03993
  31        2PZ         0.06334  -0.00000   0.08100  -0.02296   0.03976
  32        3S         -0.01356   0.00000  -0.01402   0.00861  -0.01492
  33        3PX        -0.02781  -0.17393   0.10272  -0.07658   0.01595
  34        3PY         0.26579  -0.30125  -0.05931  -0.07247  -0.07658
  35        3PZ        -0.13695   0.00000  -0.17145   0.04878  -0.08448
  36        4S          0.02644  -0.00000  -0.12357   0.36251  -0.62789
  37        4PX        -0.04220  -0.15970   0.12671  -0.26558   0.15930
  38        4PY         0.23843  -0.27661  -0.07316  -0.14737  -0.26558
  39        4PZ        -0.11968   0.00000  -0.22437   0.11700  -0.20265
  40 4   Cl 1S         -0.00052  -0.00000  -0.00401   0.00679   0.01176
  41        2S          0.00304   0.00000   0.02483  -0.04318  -0.07479
  42        2PX        -0.01405   0.08088   0.04800  -0.03993  -0.01094
  43        2PY        -0.12359  -0.14009   0.02771   0.03516  -0.03993
  44        2PZ         0.06334   0.00000   0.08100  -0.02296  -0.03976
  45        3S         -0.01356  -0.00000  -0.01402   0.00861   0.01492
  46        3PX         0.02781  -0.17393  -0.10272   0.07658   0.01595
  47        3PY         0.26579   0.30125  -0.05931  -0.07247   0.07658
  48        3PZ        -0.13695  -0.00000  -0.17145   0.04878   0.08448
  49        4S          0.02644   0.00000  -0.12357   0.36251   0.62789
  50        4PX         0.04220  -0.15970  -0.12671   0.26558   0.15930
  51        4PY         0.23843   0.27661  -0.07316  -0.14737   0.26558
  52        4PZ        -0.11968  -0.00000  -0.22437   0.11700   0.20265
                          36        37        38        39        40
                        (A1)--V   (A1)--V   (A1)--V   (E)--V    (E)--V
     Eigenvalues --     0.30276   0.42418   0.49152   0.51564   0.51564
   1 1   Al 1S         -0.04009  -0.04094   0.02797   0.00000  -0.00000
   2        2S          0.20628   0.02896  -0.05749   0.00000  -0.00000
   3        2PX         0.00000   0.00000   0.00000  -0.33033   0.00000
   4        2PY        -0.00000   0.00000   0.00000   0.00000  -0.33033
   5        2PZ        -0.08662   0.13183   0.27826   0.00000   0.00000
   6        3S         -0.39459  -1.60903   0.84519   0.00000  -0.00000
   7        3PX         0.00000   0.00000   0.00000   1.48010   0.00000
   8        3PY         0.00000  -0.00000  -0.00000   0.00000   1.48010
   9        3PZ         0.14078  -0.55634  -1.25358   0.00000  -0.00000
  10        4S         -0.81951   2.24306  -0.85964   0.00000   0.00000
  11        4PX         0.00000   0.00000   0.00000  -1.22711   0.00000
  12        4PY         0.00000   0.00000   0.00000   0.00000  -1.22711
  13        4PZ         1.08363   0.10182   1.26337   0.00000  -0.00000
  14 2   Cl 1S          0.01427  -0.00800  -0.00061   0.00000  -0.00501
  15        2S         -0.08929   0.05109   0.00299   0.00000   0.03084
  16        2PX         0.00000   0.00000   0.00000  -0.00292   0.00000
  17        2PY         0.07919   0.00812  -0.03991   0.00000  -0.06680
  18        2PZ         0.01361  -0.01620   0.02436   0.00000   0.02151
  19        3S          0.09838  -0.04127  -0.03703   0.00000  -0.08198
  20        3PX         0.00000   0.00000   0.00000   0.00279   0.00000
  21        3PY        -0.16469  -0.03137   0.09672   0.00000   0.14981
  22        3PZ        -0.02737   0.04519  -0.05401   0.00000  -0.04772
  23        4S          0.41125  -0.40139   0.26268   0.00000   0.26688
  24        4PX         0.00000   0.00000   0.00000   0.09437   0.00000
  25        4PY        -0.39214   0.18515   0.01450   0.00000   0.24593
  26        4PZ        -0.06482  -0.05908  -0.11904   0.00000  -0.06194
  27 3   Cl 1S          0.01427  -0.00800  -0.00061  -0.00434   0.00250
  28        2S         -0.08929   0.05109   0.00299   0.02671  -0.01542
  29        2PX         0.06858   0.00703  -0.03456  -0.05083   0.02766
  30        2PY        -0.03959  -0.00406   0.01996   0.02766  -0.01889
  31        2PZ         0.01361  -0.01620   0.02436   0.01863  -0.01075
  32        3S          0.09838  -0.04127  -0.03703  -0.07100   0.04099
  33        3PX        -0.14262  -0.02717   0.08376   0.11305  -0.06366
  34        3PY         0.08234   0.01569  -0.04836  -0.06366   0.03954
  35        3PZ        -0.02737   0.04519  -0.05401  -0.04133   0.02386
  36        4S          0.41125  -0.40139   0.26268   0.23112  -0.13344
  37        4PX        -0.33960   0.16034   0.01256   0.20804  -0.06563
  38        4PY         0.19607  -0.09257  -0.00725  -0.06563   0.13226
  39        4PZ        -0.06482  -0.05908  -0.11904  -0.05364   0.03097
  40 4   Cl 1S          0.01427  -0.00800  -0.00061   0.00434   0.00250
  41        2S         -0.08929   0.05109   0.00299  -0.02671  -0.01542
  42        2PX        -0.06858  -0.00703   0.03456  -0.05083  -0.02766
  43        2PY        -0.03959  -0.00406   0.01996  -0.02766  -0.01889
  44        2PZ         0.01361  -0.01620   0.02436  -0.01863  -0.01075
  45        3S          0.09838  -0.04127  -0.03703   0.07100   0.04099
  46        3PX         0.14262   0.02717  -0.08376   0.11305   0.06366
  47        3PY         0.08234   0.01569  -0.04836   0.06366   0.03954
  48        3PZ        -0.02737   0.04519  -0.05401   0.04133   0.02386
  49        4S          0.41125  -0.40139   0.26268  -0.23112  -0.13344
  50        4PX         0.33960  -0.16034  -0.01256   0.20804   0.06563
  51        4PY         0.19607  -0.09257  -0.00725   0.06563   0.13226
  52        4PZ        -0.06482  -0.05908  -0.11904   0.05364   0.03097
                          41        42        43        44        45
                        (E)--V    (E)--V    (A1)--V   (E)--V    (E)--V
     Eigenvalues --     0.91435   0.91435   0.93883   0.94585   0.94585
   1 1   Al 1S          0.00000  -0.00000   0.00224   0.00000   0.00000
   2        2S          0.00000  -0.00000   0.03600   0.00000   0.00000
   3        2PX         0.00935   0.00000   0.00000   0.00576   0.00000
   4        2PY         0.00000   0.00935   0.00000   0.00000   0.00576
   5        2PZ         0.00000   0.00000  -0.00546   0.00000  -0.00000
   6        3S          0.00000  -0.00000   0.37804   0.00000   0.00000
   7        3PX         0.03084   0.00000   0.00000   0.00203   0.00000
   8        3PY         0.00000   0.03084   0.00000   0.00000   0.00203
   9        3PZ         0.00000   0.00000  -0.05867   0.00000  -0.00000
  10        4S          0.00000   0.00000  -0.35170   0.00000  -0.00000
  11        4PX        -0.20608   0.00000   0.00000  -0.30938   0.00000
  12        4PY         0.00000  -0.20608  -0.00000   0.00000  -0.30938
  13        4PZ         0.00000  -0.00000  -0.03113   0.00000   0.00000
  14 2   Cl 1S          0.00000  -0.04345  -0.02217   0.00000  -0.01898
  15        2S          0.00000   0.26521   0.13552   0.00000   0.11528
  16        2PX        -0.12806   0.00000   0.00000   0.17179   0.00000
  17        2PY         0.00000   0.14261   0.16504   0.00000  -0.02847
  18        2PZ         0.00000  -0.02486   0.04753   0.00000  -0.21227
  19        3S          0.00000  -1.17274  -0.59511   0.00000  -0.54360
  20        3PX         0.43455   0.00000   0.00000  -0.59957   0.00000
  21        3PY         0.00000  -0.48945  -0.57251   0.00000   0.09972
  22        3PZ         0.00000   0.08339  -0.16330   0.00000   0.73204
  23        4S          0.00000   1.19134   0.60614   0.00000   0.64550
  24        4PX        -0.36100   0.00000   0.00000   0.60907   0.00000
  25        4PY         0.00000   0.43115   0.53990   0.00000  -0.12862
  26        4PZ         0.00000  -0.05581   0.15476   0.00000  -0.65555
  27 3   Cl 1S         -0.03763   0.02173  -0.02217  -0.01644   0.00949
  28        2S          0.22967  -0.13260   0.13552   0.09983  -0.05764
  29        2PX         0.07494  -0.11720   0.14293   0.02160   0.08672
  30        2PY        -0.11720  -0.06039  -0.08252   0.08672   0.12173
  31        2PZ        -0.02153   0.01243   0.04753  -0.18383   0.10614
  32        3S         -1.01562   0.58637  -0.59511  -0.47077   0.27180
  33        3PX        -0.25845   0.40011  -0.49581  -0.07511  -0.30280
  34        3PY         0.40011   0.20355   0.28626  -0.30280  -0.42475
  35        3PZ         0.07222  -0.04169  -0.16330   0.63396  -0.36602
  36        4S          1.03173  -0.59567   0.60614   0.55902  -0.32275
  37        4PX         0.23311  -0.34301   0.46757   0.05580   0.31943
  38        4PY        -0.34301  -0.16297  -0.26995   0.31943   0.42464
  39        4PZ        -0.04834   0.02791   0.15476  -0.56772   0.32778
  40 4   Cl 1S          0.03763   0.02173  -0.02217   0.01644   0.00949
  41        2S         -0.22967  -0.13260   0.13552  -0.09983  -0.05764
  42        2PX         0.07494   0.11720  -0.14293   0.02160  -0.08672
  43        2PY         0.11720  -0.06039  -0.08252  -0.08672   0.12173
  44        2PZ         0.02153   0.01243   0.04753   0.18383   0.10614
  45        3S          1.01562   0.58637  -0.59511   0.47077   0.27180
  46        3PX        -0.25845  -0.40011   0.49581  -0.07511   0.30280
  47        3PY        -0.40011   0.20355   0.28626   0.30280  -0.42475
  48        3PZ        -0.07222  -0.04169  -0.16330  -0.63396  -0.36602
  49        4S         -1.03173  -0.59567   0.60614  -0.55902  -0.32275
  50        4PX         0.23311   0.34301  -0.46757   0.05580  -0.31943
  51        4PY         0.34301  -0.16297  -0.26995  -0.31943   0.42464
  52        4PZ         0.04834   0.02791   0.15476   0.56772   0.32778
                          46        47        48        49        50
                        (A1)--V   (A2)--V   (E)--V    (E)--V    (E)--V
     Eigenvalues --     1.01536   1.04781   1.07587   1.07587   1.12078
   1 1   Al 1S         -0.00650   0.00000   0.00000   0.00000   0.00000
   2        2S         -0.00526   0.00000   0.00000  -0.00000  -0.00000
   3        2PX         0.00000   0.00000   0.00667   0.00000   0.00000
   4        2PY         0.00000   0.00000   0.00000   0.00667   0.03490
   5        2PZ        -0.00716   0.00000   0.00000   0.00000   0.00000
   6        3S         -0.40580   0.00000   0.00000   0.00000  -0.00000
   7        3PX         0.00000  -0.00000   0.00472   0.00000   0.00000
   8        3PY        -0.00000   0.00000   0.00000   0.00472  -0.48594
   9        3PZ         0.15955   0.00000   0.00000  -0.00000  -0.00000
  10        4S         -0.00567   0.00000   0.00000   0.00000   0.00000
  11        4PX         0.00000  -0.00000  -0.73486   0.00000   0.00000
  12        4PY        -0.00000   0.00000   0.00000  -0.73486  -0.38072
  13        4PZ        -0.38371   0.00000   0.00000   0.00000  -0.00000
  14 2   Cl 1S         -0.00030   0.00000   0.00000  -0.01386  -0.03196
  15        2S          0.00160   0.00000   0.00000   0.08305   0.19338
  16        2PX         0.00000   0.20551   0.19583   0.00000   0.00000
  17        2PY        -0.05369   0.00000   0.00000   0.09806  -0.23600
  18        2PZ         0.19669   0.00000   0.00000   0.17654   0.08632
  19        3S         -0.03329   0.00000   0.00000  -0.47683  -1.03460
  20        3PX         0.00000  -0.72739  -0.70880   0.00000   0.00000
  21        3PY         0.19784   0.00000   0.00000  -0.34296   0.86980
  22        3PZ        -0.70091   0.00000   0.00000  -0.63582  -0.32397
  23        4S          0.02610   0.00000   0.00000   0.77046   1.30613
  24        4PX         0.00000   0.73633   0.83559   0.00000   0.00000
  25        4PY        -0.23624   0.00000   0.00000   0.26112  -1.11957
  26        4PZ         0.76046   0.00000   0.00000   0.73465   0.45689
  27 3   Cl 1S         -0.00030  -0.00000  -0.01201   0.00693   0.01598
  28        2S          0.00160   0.00000   0.07192  -0.04152  -0.09669
  29        2PX        -0.04649  -0.10276   0.12250   0.04234   0.09481
  30        2PY         0.02684  -0.17798   0.04234   0.17139  -0.07179
  31        2PZ         0.19669   0.00000   0.15288  -0.08827  -0.04316
  32        3S         -0.03329  -0.00000  -0.41295   0.23842   0.51730
  33        3PX         0.17133   0.36369  -0.43442  -0.15841  -0.35446
  34        3PY        -0.09892   0.62993  -0.15841  -0.61734   0.25586
  35        3PZ        -0.70091  -0.00000  -0.55064   0.31791   0.16198
  36        4S          0.02610   0.00000   0.66723  -0.38523  -0.65306
  37        4PX        -0.20459  -0.36817   0.40474   0.24875   0.49579
  38        4PY         0.11812  -0.63768   0.24875   0.69198  -0.26084
  39        4PZ         0.76046   0.00000   0.63623  -0.36733  -0.22845
  40 4   Cl 1S         -0.00030   0.00000   0.01201   0.00693   0.01598
  41        2S          0.00160  -0.00000  -0.07192  -0.04152  -0.09669
  42        2PX         0.04649  -0.10276   0.12250  -0.04234  -0.09481
  43        2PY         0.02684   0.17798  -0.04234   0.17139  -0.07179
  44        2PZ         0.19669  -0.00000  -0.15288  -0.08827  -0.04316
  45        3S         -0.03329   0.00000   0.41295   0.23842   0.51730
  46        3PX        -0.17133   0.36369  -0.43442   0.15841   0.35446
  47        3PY        -0.09892  -0.62993   0.15841  -0.61734   0.25586
  48        3PZ        -0.70091   0.00000   0.55064   0.31791   0.16198
  49        4S          0.02610  -0.00000  -0.66723  -0.38523  -0.65306
  50        4PX         0.20459  -0.36817   0.40474  -0.24875  -0.49579
  51        4PY         0.11812   0.63768  -0.24875   0.69198  -0.26084
  52        4PZ         0.76046  -0.00000  -0.63623  -0.36733  -0.22845
                          51        52
                        (E)--V    (A1)--V
     Eigenvalues --     1.12078   1.29027
   1 1   Al 1S          0.00000   0.01476
   2        2S          0.00000  -0.14537
   3        2PX         0.03490   0.00000
   4        2PY         0.00000  -0.00000
   5        2PZ         0.00000   0.04004
   6        3S          0.00000  -0.11327
   7        3PX        -0.48594   0.00000
   8        3PY         0.00000   0.00000
   9        3PZ         0.00000  -0.28523
  10        4S          0.00000   2.29937
  11        4PX        -0.38072   0.00000
  12        4PY         0.00000   0.00000
  13        4PZ         0.00000  -1.01841
  14 2   Cl 1S          0.00000   0.03430
  15        2S          0.00000  -0.20541
  16        2PX        -0.01705   0.00000
  17        2PY         0.00000   0.10987
  18        2PZ         0.00000   0.02914
  19        3S          0.00000   1.26726
  20        3PX         0.05121   0.00000
  21        3PY         0.00000  -0.45227
  22        3PZ         0.00000  -0.10640
  23        4S          0.00000  -1.98246
  24        4PX         0.02541   0.00000
  25        4PY         0.00000   0.97451
  26        4PZ         0.00000   0.09456
  27 3   Cl 1S         -0.02768   0.03430
  28        2S          0.16747  -0.20541
  29        2PX        -0.18126   0.09515
  30        2PY         0.09481  -0.05494
  31        2PZ         0.07476   0.02914
  32        3S         -0.89599   1.26726
  33        3PX         0.66516  -0.39168
  34        3PY        -0.35446   0.22614
  35        3PZ        -0.28056  -0.10640
  36        4S          1.13114  -1.98246
  37        4PX        -0.83333   0.84395
  38        4PY         0.49579  -0.48725
  39        4PZ         0.39568   0.09456
  40 4   Cl 1S          0.02768   0.03430
  41        2S         -0.16747  -0.20541
  42        2PX        -0.18126  -0.09515
  43        2PY        -0.09481  -0.05494
  44        2PZ        -0.07476   0.02914
  45        3S          0.89599   1.26726
  46        3PX         0.66516   0.39168
  47        3PY         0.35446   0.22614
  48        3PZ         0.28056  -0.10640
  49        4S         -1.13114  -1.98246
  50        4PX        -0.83333  -0.84395
  51        4PY        -0.49579  -0.48725
  52        4PZ        -0.39568   0.09456
     Beta Molecular Orbital Coefficients:
                           1         2         3         4         5
                        (A1)--O   (E)--O    (E)--O    (A1)--O   (A1)--O
     Eigenvalues --  -103.91570-103.91537-103.91537 -57.98453 -10.30689
   1 1   Al 1S         -0.00001  -0.00000   0.00000   0.98853   0.00013
   2        2S          0.00043   0.00000   0.00000   0.04431  -0.00238
   3        2PX         0.00000   0.00000  -0.00002   0.00000   0.00000
   4        2PY         0.00000  -0.00002   0.00000   0.00000  -0.00000
   5        2PZ        -0.00005  -0.00000   0.00000  -0.00021   0.00027
   6        3S          0.00107   0.00000   0.00000  -0.01086  -0.00617
   7        3PX         0.00000   0.00000  -0.00055   0.00000   0.00000
   8        3PY         0.00000  -0.00055   0.00000   0.00000  -0.00000
   9        3PZ         0.00063   0.00000   0.00000   0.00102  -0.00355
  10        4S         -0.00862  -0.00000   0.00000  -0.00102   0.04898
  11        4PX         0.00000   0.00000  -0.00266   0.00000   0.00000
  12        4PY         0.00000  -0.00266   0.00000   0.00000  -0.00000
  13        4PZ         0.00350   0.00000   0.00000   0.00201  -0.01976
  14 2   Cl 1S          0.56919   0.80498   0.00000  -0.00002  -0.17656
  15        2S          0.03074   0.04334   0.00000   0.00011   0.56714
  16        2PX         0.00000   0.00000   0.00003   0.00000   0.00000
  17        2PY        -0.00015  -0.00014   0.00000  -0.00004  -0.00301
  18        2PZ         0.00000   0.00007   0.00000  -0.00002   0.00142
  19        3S         -0.01213  -0.01535   0.00000  -0.00187   0.08809
  20        3PX         0.00000   0.00000  -0.00016   0.00000   0.00000
  21        3PY         0.00068   0.00051   0.00000   0.00044  -0.00440
  22        3PZ         0.00003  -0.00030   0.00000   0.00004   0.00013
  23        4S          0.00958   0.00935   0.00000   0.00366  -0.05519
  24        4PX         0.00000   0.00000   0.00061   0.00000   0.00000
  25        4PY        -0.00247  -0.00130   0.00000  -0.00256   0.01406
  26        4PZ         0.00003   0.00081   0.00000   0.00037  -0.00030
  27 3   Cl 1S          0.56919  -0.40249   0.69713  -0.00002  -0.17656
  28        2S          0.03074  -0.02167   0.03753   0.00011   0.56714
  29        2PX        -0.00013   0.00007  -0.00010  -0.00003  -0.00261
  30        2PY         0.00007  -0.00001   0.00007   0.00002   0.00151
  31        2PZ         0.00000  -0.00004   0.00006  -0.00002   0.00142
  32        3S         -0.01213   0.00768  -0.01330  -0.00187   0.08809
  33        3PX         0.00059  -0.00029   0.00034   0.00038  -0.00381
  34        3PY        -0.00034   0.00001  -0.00029  -0.00022   0.00220
  35        3PZ         0.00003   0.00015  -0.00026   0.00004   0.00013
  36        4S          0.00958  -0.00468   0.00810   0.00366  -0.05519
  37        4PX        -0.00214   0.00083  -0.00082  -0.00222   0.01217
  38        4PY         0.00124   0.00013   0.00083   0.00128  -0.00703
  39        4PZ         0.00003  -0.00041   0.00071   0.00037  -0.00030
  40 4   Cl 1S          0.56919  -0.40249  -0.69713  -0.00002  -0.17656
  41        2S          0.03074  -0.02167  -0.03753   0.00011   0.56714
  42        2PX         0.00013  -0.00007  -0.00010   0.00003   0.00261
  43        2PY         0.00007  -0.00001  -0.00007   0.00002   0.00151
  44        2PZ         0.00000  -0.00004  -0.00006  -0.00002   0.00142
  45        3S         -0.01213   0.00768   0.01330  -0.00187   0.08809
  46        3PX        -0.00059   0.00029   0.00034  -0.00038   0.00381
  47        3PY        -0.00034   0.00001   0.00029  -0.00022   0.00220
  48        3PZ         0.00003   0.00015   0.00026   0.00004   0.00013
  49        4S          0.00958  -0.00468  -0.00810   0.00366  -0.05519
  50        4PX         0.00214  -0.00083  -0.00082   0.00222  -0.01217
  51        4PY         0.00124   0.00013  -0.00083   0.00128  -0.00703
  52        4PZ         0.00003  -0.00041  -0.00071   0.00037  -0.00030
                           6         7         8         9        10
                        (E)--O    (E)--O    (E)--O    (E)--O    (A1)--O
     Eigenvalues --   -10.30580 -10.30580  -7.76863  -7.76863  -7.76854
   1 1   Al 1S          0.00000   0.00000  -0.00000   0.00000  -0.00000
   2        2S         -0.00000   0.00000  -0.00000   0.00000  -0.00000
   3        2PX         0.00000   0.00006   0.00000  -0.00020   0.00000
   4        2PY         0.00006   0.00000  -0.00020   0.00000   0.00000
   5        2PZ         0.00000   0.00000   0.00000   0.00000   0.00006
   6        3S         -0.00000   0.00000  -0.00000   0.00000  -0.00205
   7        3PX         0.00000   0.00317   0.00000  -0.00403   0.00000
   8        3PY         0.00317   0.00000  -0.00403   0.00000   0.00000
   9        3PZ        -0.00000   0.00000   0.00000   0.00000   0.00234
  10        4S          0.00000   0.00000  -0.00000   0.00000  -0.01915
  11        4PX         0.00000   0.01536   0.00000  -0.00154   0.00000
  12        4PY         0.01536   0.00000  -0.00154   0.00000   0.00000
  13        4PZ        -0.00000   0.00000   0.00000   0.00000   0.00894
  14 2   Cl 1S         -0.24982   0.00000  -0.00179   0.00000  -0.00130
  15        2S          0.80276   0.00000   0.00624   0.00000   0.00458
  16        2PX         0.00000  -0.00011   0.00000   0.04777   0.00000
  17        2PY        -0.00454   0.00000   0.79259   0.00000   0.56204
  18        2PZ         0.00175   0.00000  -0.03719   0.00000  -0.01011
  19        3S          0.11487   0.00000  -0.00391   0.00000  -0.00534
  20        3PX         0.00000   0.00090   0.00000   0.00437   0.00000
  21        3PY        -0.00380   0.00000   0.06674   0.00000   0.04731
  22        3PZ         0.00205   0.00000  -0.00383   0.00000  -0.00111
  23        4S         -0.05495   0.00000   0.00591   0.00000   0.01169
  24        4PX         0.00000  -0.00349   0.00000  -0.00177   0.00000
  25        4PY         0.00767   0.00000  -0.02352   0.00000  -0.01921
  26        4PZ        -0.00474   0.00000   0.00243   0.00000   0.00070
  27 3   Cl 1S          0.12491  -0.21635   0.00089  -0.00155  -0.00130
  28        2S         -0.40138   0.69521  -0.00312   0.00541   0.00458
  29        2PX         0.00192  -0.00344  -0.32252   0.60639   0.48674
  30        2PY        -0.00122   0.00192   0.23397  -0.32252  -0.28102
  31        2PZ        -0.00088   0.00152   0.01859  -0.03220  -0.01011
  32        3S         -0.05743   0.09948   0.00195  -0.00338  -0.00534
  33        3PX         0.00203  -0.00263  -0.02701   0.05115   0.04097
  34        3PY        -0.00028   0.00203   0.01996  -0.02701  -0.02365
  35        3PZ        -0.00103   0.00178   0.00192  -0.00332  -0.00111
  36        4S          0.02748  -0.04759  -0.00296   0.00512   0.01169
  37        4PX        -0.00483   0.00488   0.00942  -0.01808  -0.01664
  38        4PY        -0.00070  -0.00483  -0.00721   0.00942   0.00961
  39        4PZ         0.00237  -0.00410  -0.00121   0.00210   0.00070
  40 4   Cl 1S          0.12491   0.21635   0.00089   0.00155  -0.00130
  41        2S         -0.40138  -0.69521  -0.00312  -0.00541   0.00458
  42        2PX        -0.00192  -0.00344   0.32252   0.60639  -0.48674
  43        2PY        -0.00122  -0.00192   0.23397   0.32252  -0.28102
  44        2PZ        -0.00088  -0.00152   0.01859   0.03220  -0.01011
  45        3S         -0.05743  -0.09948   0.00195   0.00338  -0.00534
  46        3PX        -0.00203  -0.00263   0.02701   0.05115  -0.04097
  47        3PY        -0.00028  -0.00203   0.01996   0.02701  -0.02365
  48        3PZ        -0.00103  -0.00178   0.00192   0.00332  -0.00111
  49        4S          0.02748   0.04759  -0.00296  -0.00512   0.01169
  50        4PX         0.00483   0.00488  -0.00942  -0.01808   0.01664
  51        4PY        -0.00070   0.00483  -0.00721  -0.00942   0.00961
  52        4PZ         0.00237   0.00410  -0.00121  -0.00210   0.00070
                          11        12        13        14        15
                        (A2)--O   (E)--O    (E)--O    (A1)--O   (E)--O
     Eigenvalues --    -7.76712  -7.76705  -7.76705  -7.76643  -7.76637
   1 1   Al 1S          0.00000   0.00000   0.00000  -0.00002   0.00000
   2        2S          0.00000  -0.00000   0.00000   0.00059   0.00000
   3        2PX        -0.00000   0.00000   0.00008   0.00000   0.00007
   4        2PY         0.00000   0.00008   0.00000   0.00000   0.00000
   5        2PZ         0.00000   0.00000   0.00000   0.00001   0.00000
   6        3S          0.00000  -0.00000   0.00000   0.00317   0.00000
   7        3PX        -0.00000   0.00000  -0.00010   0.00000   0.00115
   8        3PY         0.00000  -0.00010   0.00000   0.00000   0.00000
   9        3PZ         0.00000   0.00000   0.00000  -0.00112   0.00000
  10        4S          0.00000  -0.00000   0.00000  -0.00264   0.00000
  11        4PX        -0.00000   0.00000   0.00982   0.00000   0.00370
  12        4PY         0.00000   0.00982   0.00000   0.00000   0.00000
  13        4PZ         0.00000   0.00000   0.00000   0.00789   0.00000
  14 2   Cl 1S          0.00000   0.00025   0.00000   0.00044   0.00000
  15        2S          0.00000  -0.00091   0.00000  -0.00148   0.00000
  16        2PX         0.56243   0.00000   0.78061   0.00000  -0.14547
  17        2PY         0.00000  -0.04019   0.00000   0.01028   0.00000
  18        2PZ         0.00000   0.14750   0.00000   0.56231   0.00000
  19        3S          0.00000   0.00224   0.00000  -0.00053   0.00000
  20        3PX         0.04605   0.00000   0.06365   0.00000  -0.01111
  21        3PY         0.00000  -0.00305   0.00000   0.00064   0.00000
  22        3PZ         0.00000   0.01279   0.00000   0.04611   0.00000
  23        4S          0.00000  -0.00632   0.00000   0.00216   0.00000
  24        4PX        -0.01439   0.00000  -0.02056   0.00000   0.00183
  25        4PY         0.00000   0.00152   0.00000  -0.00086   0.00000
  26        4PZ         0.00000  -0.00584   0.00000  -0.01493   0.00000
  27 3   Cl 1S         -0.00000  -0.00013   0.00022   0.00044   0.00053
  28        2S          0.00000   0.00046  -0.00079  -0.00148  -0.00186
  29        2PX        -0.28121   0.35542   0.16501   0.00890  -0.00203
  30        2PY        -0.48708   0.57541   0.35542  -0.00514  -0.08281
  31        2PZ        -0.00000  -0.07375   0.12774   0.56231   0.67612
  32        3S         -0.00000  -0.00112   0.00194  -0.00053   0.00173
  33        3PX        -0.02303   0.02888   0.01362   0.00056  -0.00059
  34        3PY        -0.03988   0.04697   0.02888  -0.00032  -0.00607
  35        3PZ        -0.00000  -0.00639   0.01107   0.04611   0.05511
  36        4S          0.00000   0.00316  -0.00547   0.00216  -0.00341
  37        4PX         0.00720  -0.00956  -0.00400  -0.00075   0.00091
  38        4PY         0.01247  -0.01504  -0.00956   0.00043   0.00053
  39        4PZ         0.00000   0.00292  -0.00506  -0.01493  -0.01704
  40 4   Cl 1S          0.00000  -0.00013  -0.00022   0.00044  -0.00053
  41        2S         -0.00000   0.00046   0.00079  -0.00148   0.00186
  42        2PX        -0.28121  -0.35542   0.16501  -0.00890  -0.00203
  43        2PY         0.48708   0.57541  -0.35542  -0.00514   0.08281
  44        2PZ         0.00000  -0.07375  -0.12774   0.56231  -0.67612
  45        3S          0.00000  -0.00112  -0.00194  -0.00053  -0.00173
  46        3PX        -0.02303  -0.02888   0.01362  -0.00056  -0.00059
  47        3PY         0.03988   0.04697  -0.02888  -0.00032   0.00607
  48        3PZ         0.00000  -0.00639  -0.01107   0.04611  -0.05511
  49        4S         -0.00000   0.00316   0.00547   0.00216   0.00341
  50        4PX         0.00720   0.00956  -0.00400   0.00075   0.00091
  51        4PY        -0.01247  -0.01504   0.00956   0.00043  -0.00053
  52        4PZ        -0.00000   0.00292   0.00506  -0.01493   0.01704
                          16        17        18        19        20
                        (E)--O    (A1)--O   (E)--O    (E)--O    (A1)--O
     Eigenvalues --    -7.76637  -4.78006  -3.08678  -3.08678  -3.08178
   1 1   Al 1S          0.00000  -0.28411   0.00000   0.00000  -0.00292
   2        2S         -0.00000   1.01070   0.00000  -0.00000   0.01113
   3        2PX         0.00000   0.00000   0.97839   0.00000   0.00000
   4        2PY         0.00007   0.00000   0.00000   0.97839   0.00000
   5        2PZ        -0.00000  -0.00864   0.00000  -0.00000   0.97924
   6        3S         -0.00000   0.09184   0.00000  -0.00000  -0.00137
   7        3PX         0.00000   0.00000   0.09027   0.00000   0.00000
   8        3PY         0.00115   0.00000   0.00000   0.09027   0.00000
   9        3PZ         0.00000  -0.00552   0.00000  -0.00000   0.08526
  10        4S          0.00000  -0.02338   0.00000   0.00000  -0.01214
  11        4PX         0.00000   0.00000  -0.02818   0.00000   0.00000
  12        4PY         0.00370   0.00000   0.00000  -0.02818  -0.00000
  13        4PZ        -0.00000  -0.00268   0.00000   0.00000  -0.02594
  14 2   Cl 1S          0.00061   0.00003   0.00000   0.00004  -0.00005
  15        2S         -0.00215  -0.00010   0.00000  -0.00001   0.00020
  16        2PX         0.00000   0.00000   0.00000   0.00000   0.00000
  17        2PY         0.04578   0.00009   0.00000   0.00004  -0.00012
  18        2PZ         0.78072   0.00003   0.00000  -0.00004   0.00004
  19        3S          0.00199   0.00375   0.00000   0.00064  -0.00256
  20        3PX         0.00000   0.00000  -0.00004   0.00000   0.00000
  21        3PY         0.00291  -0.00109   0.00000   0.00075   0.00024
  22        3PZ         0.06364   0.00011   0.00000  -0.00024  -0.00009
  23        4S         -0.00394  -0.00651   0.00000  -0.00192   0.00611
  24        4PX         0.00000   0.00000  -0.00007   0.00000   0.00000
  25        4PY         0.00061   0.00861   0.00000   0.00967  -0.00611
  26        4PZ        -0.01968  -0.00232   0.00000  -0.00401   0.00219
  27 3   Cl 1S         -0.00030   0.00003   0.00003  -0.00002  -0.00005
  28        2S          0.00107  -0.00010  -0.00001   0.00000   0.00020
  29        2PX        -0.08281   0.00008   0.00003  -0.00002  -0.00010
  30        2PY        -0.09766  -0.00004  -0.00002   0.00001   0.00006
  31        2PZ        -0.39036   0.00003  -0.00003   0.00002   0.00004
  32        3S         -0.00100   0.00375   0.00055  -0.00032  -0.00256
  33        3PX        -0.00607  -0.00094   0.00055  -0.00034   0.00021
  34        3PY        -0.00760   0.00054  -0.00034   0.00015  -0.00012
  35        3PZ        -0.03182   0.00011  -0.00020   0.00012  -0.00009
  36        4S          0.00197  -0.00651  -0.00166   0.00096   0.00611
  37        4PX         0.00053   0.00746   0.00724  -0.00422  -0.00529
  38        4PY         0.00152  -0.00431  -0.00422   0.00237   0.00306
  39        4PZ         0.00984  -0.00232  -0.00347   0.00200   0.00219
  40 4   Cl 1S         -0.00030   0.00003  -0.00003  -0.00002  -0.00005
  41        2S          0.00107  -0.00010   0.00001   0.00000   0.00020
  42        2PX         0.08281  -0.00008   0.00003   0.00002   0.00010
  43        2PY        -0.09766  -0.00004   0.00002   0.00001   0.00006
  44        2PZ        -0.39036   0.00003   0.00003   0.00002   0.00004
  45        3S         -0.00100   0.00375  -0.00055  -0.00032  -0.00256
  46        3PX         0.00607   0.00094   0.00055   0.00034  -0.00021
  47        3PY        -0.00760   0.00054   0.00034   0.00015  -0.00012
  48        3PZ        -0.03182   0.00011   0.00020   0.00012  -0.00009
  49        4S          0.00197  -0.00651   0.00166   0.00096   0.00611
  50        4PX        -0.00053  -0.00746   0.00724   0.00422   0.00529
  51        4PY         0.00152  -0.00431   0.00422   0.00237   0.00306
  52        4PZ         0.00984  -0.00232   0.00347   0.00200   0.00219
                          21        22        23        24        25
                        (A1)--O   (E)--O    (E)--O    (A1)--O   (E)--O
     Eigenvalues --    -0.89997  -0.88398  -0.88398  -0.39502  -0.32225
   1 1   Al 1S          0.01336   0.00000   0.00000   0.03600   0.00000
   2        2S         -0.06185   0.00000  -0.00000  -0.17344   0.00000
   3        2PX         0.00000  -0.03686   0.00000   0.00000  -0.09252
   4        2PY         0.00000   0.00000  -0.03686   0.00000   0.00000
   5        2PZ         0.02214   0.00000   0.00000   0.04920   0.00000
   6        3S          0.09525   0.00000   0.00000   0.29865   0.00000
   7        3PX         0.00000   0.04813   0.00000   0.00000   0.18024
   8        3PY        -0.00000   0.00000   0.04813  -0.00000   0.00000
   9        3PZ        -0.03204   0.00000  -0.00000  -0.10728   0.00000
  10        4S         -0.03983   0.00000  -0.00000   0.06190   0.00000
  11        4PX         0.00000  -0.02952   0.00000   0.00000   0.01384
  12        4PY         0.00000   0.00000  -0.02952  -0.00000   0.00000
  13        4PZ         0.02543   0.00000   0.00000   0.02304   0.00000
  14 2   Cl 1S          0.04444   0.00000   0.06467  -0.01149   0.00000
  15        2S         -0.26137   0.00000  -0.38054   0.06920   0.00000
  16        2PX         0.00000  -0.00138   0.00000   0.00000  -0.12501
  17        2PY         0.01496   0.00000   0.01551   0.12417   0.00000
  18        2PZ        -0.00499   0.00000  -0.00636  -0.02896   0.00000
  19        3S          0.31185   0.00000   0.45822  -0.10088   0.00000
  20        3PX         0.00000   0.00239   0.00000   0.00000   0.26667
  21        3PY        -0.02874   0.00000  -0.02921  -0.26101   0.00000
  22        3PZ         0.00954   0.00000   0.01120   0.06031   0.00000
  23        4S          0.32062   0.00000   0.45856  -0.07858   0.00000
  24        4PX         0.00000   0.00551   0.00000   0.00000   0.24450
  25        4PY        -0.03349   0.00000  -0.03621  -0.22555   0.00000
  26        4PZ         0.00952   0.00000   0.01813   0.05016   0.00000
  27 3   Cl 1S          0.04444   0.05600  -0.03233  -0.01149  -0.00673
  28        2S         -0.26137  -0.32955   0.19027   0.06920   0.04074
  29        2PX         0.01295   0.01129  -0.00731   0.10753   0.08368
  30        2PY        -0.00748  -0.00731   0.00285  -0.06208  -0.12049
  31        2PZ        -0.00499  -0.00551   0.00318  -0.02896  -0.05532
  32        3S          0.31185   0.39683  -0.22911  -0.10088  -0.06386
  33        3PX        -0.02489  -0.02131   0.01369  -0.22604  -0.17498
  34        3PY         0.01437   0.01369  -0.00551   0.13051   0.25498
  35        3PZ         0.00954   0.00970  -0.00560   0.06031   0.11689
  36        4S          0.32062   0.39712  -0.22928  -0.07858  -0.04541
  37        4PX        -0.02900  -0.02578   0.01806  -0.19533  -0.15901
  38        4PY         0.01674   0.01806  -0.00492   0.11277   0.23297
  39        4PZ         0.00952   0.01571  -0.00907   0.05016   0.10128
  40 4   Cl 1S          0.04444  -0.05600  -0.03233  -0.01149   0.00673
  41        2S         -0.26137   0.32955   0.19027   0.06920  -0.04074
  42        2PX        -0.01295   0.01129   0.00731  -0.10753   0.08368
  43        2PY        -0.00748   0.00731   0.00285  -0.06208   0.12049
  44        2PZ        -0.00499   0.00551   0.00318  -0.02896   0.05532
  45        3S          0.31185  -0.39683  -0.22911  -0.10088   0.06386
  46        3PX         0.02489  -0.02131  -0.01369   0.22604  -0.17498
  47        3PY         0.01437  -0.01369  -0.00551   0.13051  -0.25498
  48        3PZ         0.00954  -0.00970  -0.00560   0.06031  -0.11689
  49        4S          0.32062  -0.39712  -0.22928  -0.07858   0.04541
  50        4PX         0.02900  -0.02578  -0.01806   0.19533  -0.15901
  51        4PY         0.01674  -0.01806  -0.00492   0.11277  -0.23297
  52        4PZ         0.00952  -0.01571  -0.00907   0.05016  -0.10128
                          26        27        28        29        30
                        (E)--O    (A1)--O   (E)--O    (E)--O    (E)--O
     Eigenvalues --    -0.32225  -0.30027  -0.28671  -0.28671  -0.27758
   1 1   Al 1S         -0.00000   0.00692   0.00000   0.00000   0.00000
   2        2S          0.00000  -0.03250   0.00000  -0.00000   0.00000
   3        2PX         0.00000   0.00000  -0.03485   0.00000   0.01725
   4        2PY         0.09252   0.00000   0.00000  -0.03485   0.00000
   5        2PZ        -0.00000  -0.03259   0.00000  -0.00000   0.00000
   6        3S         -0.00000   0.05925   0.00000   0.00000   0.00000
   7        3PX         0.00000   0.00000   0.06750   0.00000  -0.03688
   8        3PY        -0.18024  -0.00000   0.00000   0.06750   0.00000
   9        3PZ         0.00000   0.05682   0.00000   0.00000   0.00000
  10        4S         -0.00000  -0.01548   0.00000  -0.00000   0.00000
  11        4PX         0.00000   0.00000  -0.03258   0.00000   0.08992
  12        4PY        -0.01384  -0.00000   0.00000  -0.03258   0.00000
  13        4PZ         0.00000   0.08554   0.00000   0.00000   0.00000
  14 2   Cl 1S          0.00777  -0.00088   0.00000  -0.00284   0.00000
  15        2S         -0.04705   0.00519   0.00000   0.01718   0.00000
  16        2PX         0.00000   0.00000   0.14056   0.00000  -0.11155
  17        2PY        -0.15325  -0.03992   0.00000   0.04034   0.00000
  18        2PZ         0.06388  -0.14622   0.00000  -0.16484   0.00000
  19        3S          0.07374  -0.02055   0.00000  -0.03827   0.00000
  20        3PX         0.00000   0.00000  -0.29940   0.00000   0.24109
  21        3PY         0.32220   0.08769   0.00000  -0.08307   0.00000
  22        3PZ        -0.13497   0.31176   0.00000   0.34916   0.00000
  23        4S          0.05243   0.03167   0.00000   0.01250   0.00000
  24        4PX         0.00000   0.00000  -0.28685   0.00000   0.20765
  25        4PY         0.29351   0.06196   0.00000  -0.08499   0.00000
  26        4PZ        -0.11694   0.29026   0.00000   0.34149   0.00000
  27 3   Cl 1S         -0.00388  -0.00088  -0.00246   0.00142   0.00085
  28        2S          0.02352   0.00519   0.01488  -0.00859  -0.00501
  29        2PX         0.12049  -0.03457   0.06540   0.04340  -0.13806
  30        2PY         0.05545   0.01996   0.04340   0.11551   0.01530
  31        2PZ        -0.03194  -0.14622  -0.14275   0.08242  -0.11307
  32        3S         -0.03687  -0.02055  -0.03314   0.01913   0.02162
  33        3PX        -0.25498   0.07594  -0.13715  -0.09367   0.29396
  34        3PY        -0.11945  -0.04385  -0.09367  -0.24531  -0.03053
  35        3PZ         0.06748   0.31176   0.30238  -0.17458   0.24388
  36        4S         -0.02622   0.03167   0.01083  -0.00625  -0.04245
  37        4PX        -0.23297   0.05366  -0.13545  -0.08741   0.28431
  38        4PY        -0.11000  -0.03098  -0.08741  -0.23639  -0.04426
  39        4PZ         0.05847   0.29026   0.29574  -0.17074   0.21642
  40 4   Cl 1S         -0.00388  -0.00088   0.00246   0.00142  -0.00085
  41        2S          0.02352   0.00519  -0.01488  -0.00859   0.00501
  42        2PX        -0.12049   0.03457   0.06540  -0.04340  -0.13806
  43        2PY         0.05545   0.01996  -0.04340   0.11551  -0.01530
  44        2PZ        -0.03194  -0.14622   0.14275   0.08242   0.11307
  45        3S         -0.03687  -0.02055   0.03314   0.01913  -0.02162
  46        3PX         0.25498  -0.07594  -0.13715   0.09367   0.29396
  47        3PY        -0.11945  -0.04385   0.09367  -0.24531   0.03053
  48        3PZ         0.06748   0.31176  -0.30238  -0.17458  -0.24388
  49        4S         -0.02622   0.03167  -0.01083  -0.00625   0.04245
  50        4PX         0.23297  -0.05366  -0.13545   0.08741   0.28431
  51        4PY        -0.11000  -0.03098   0.08741  -0.23639   0.04426
  52        4PZ         0.05847   0.29026  -0.29574  -0.17074  -0.21642
                          31        32        33        34        35
                        (E)--O    (A2)--O   (A1)--V   (E)--V    (E)--V
     Eigenvalues --    -0.27758  -0.27203   0.18045   0.30500   0.30500
   1 1   Al 1S          0.00000   0.00000   0.03731   0.00000   0.00000
   2        2S         -0.00000   0.00000  -0.21665  -0.00000   0.00000
   3        2PX         0.00000   0.00000   0.00000   0.00000  -0.09521
   4        2PY         0.01725   0.00000  -0.00000  -0.09521   0.00000
   5        2PZ        -0.00000   0.00000  -0.08410   0.00000   0.00000
   6        3S         -0.00000   0.00000   0.13825   0.00000   0.00000
   7        3PX         0.00000  -0.00000   0.00000   0.00000   0.12836
   8        3PY        -0.03688   0.00000  -0.00000   0.12836   0.00000
   9        3PZ         0.00000   0.00000   0.10828  -0.00000   0.00000
  10        4S          0.00000   0.00000   0.96105   0.00000   0.00000
  11        4PX         0.00000  -0.00000   0.00000   0.00000   1.49022
  12        4PY         0.08992   0.00000   0.00000   1.49022   0.00000
  13        4PZ         0.00000   0.00000   0.42078  -0.00000   0.00000
  14 2   Cl 1S          0.00099   0.00000  -0.00793  -0.01391   0.00000
  15        2S         -0.00578   0.00000   0.04897   0.08830   0.00000
  16        2PX         0.00000  -0.16149   0.00000   0.00000   0.05845
  17        2PY        -0.14689   0.00000  -0.04749  -0.02816   0.00000
  18        2PZ        -0.13056   0.00000   0.05250   0.04337   0.00000
  19        3S          0.02497   0.00000  -0.05990  -0.02999   0.00000
  20        3PX         0.00000   0.34695   0.00000   0.00000  -0.12023
  21        3PY         0.31159   0.00000   0.10070   0.04700   0.00000
  22        3PZ         0.28161   0.00000  -0.11025  -0.08956   0.00000
  23        4S         -0.04902   0.00000  -0.15767  -0.72428   0.00000
  24        4PX         0.00000   0.32032   0.00000   0.00000  -0.29396
  25        4PY         0.30986   0.00000   0.16348   0.28977   0.00000
  26        4PZ         0.24990   0.00000  -0.18806  -0.23544   0.00000
  27 3   Cl 1S         -0.00049   0.00000  -0.00793   0.00696  -0.01205
  28        2S          0.00289  -0.00000   0.04897  -0.04415   0.07647
[...]
  35        3PZ        -0.04981   0.00000   0.00000   0.00000   0.67543
  36        4S          0.00000   0.51164   0.00000   0.00000   0.00000
  37        4PX         0.00000   0.00000   0.34688   0.00000   0.00000
  38        4PY         0.00000   0.00000  -0.00000   0.37256   0.00000
  39        4PZ        -0.02377   0.00000   0.00000   0.00000   0.38247
  40 4   Cl 1S          0.00000  -0.00000  -0.00000  -0.00000   0.00000
  41        2S          0.00000   0.00000   0.00000  -0.00000   0.00000
  42        2PX         0.00000   0.00000   0.00000  -0.00000   0.00000
  43        2PY         0.00000  -0.00000  -0.00000   0.00000   0.00000
  44        2PZ         0.00000   0.00000   0.00000   0.00000   0.00000
  45        3S          0.00000   0.00000  -0.00000   0.00000   0.00000
  46        3PX         0.00000  -0.00000  -0.00000  -0.00000   0.00000
  47        3PY         0.00000  -0.00000   0.00000  -0.00000   0.00000
  48        3PZ         0.00000   0.00000   0.00000   0.00000  -0.00000
  49        4S          0.00000   0.00000  -0.00018  -0.00000   0.00000
  50        4PX         0.00000  -0.00003  -0.00099  -0.00000   0.00000
  51        4PY         0.00000  -0.00000  -0.00000  -0.00001   0.00000
  52        4PZ        -0.00000   0.00000   0.00000   0.00000   0.00000
                          36        37        38        39        40
  36        4S          0.67861
  37        4PX         0.00000   0.52376
  38        4PY         0.00000  -0.00000   0.55629
  39        4PZ         0.00000   0.00000   0.00000   0.58406
  40 4   Cl 1S          0.00000   0.00000  -0.00000   0.00000   2.14388
  41        2S         -0.00000  -0.00000  -0.00000   0.00000  -0.14836
  42        2PX         0.00000   0.00001   0.00000   0.00000   0.00000
  43        2PY         0.00000   0.00000   0.00000   0.00000   0.00000
  44        2PZ         0.00000   0.00000   0.00000  -0.00000   0.00000
  45        3S          0.00000  -0.00003  -0.00000   0.00000  -0.00211
  46        3PX        -0.00018  -0.00099  -0.00000   0.00000   0.00000
  47        3PY        -0.00000  -0.00000  -0.00001   0.00000   0.00000
  48        3PZ         0.00000   0.00000   0.00000   0.00000   0.00000
  49        4S          0.00043  -0.00176  -0.00000   0.00000   0.00555
  50        4PX        -0.00176  -0.00944   0.00000   0.00000   0.00000
  51        4PY         0.00000  -0.00000  -0.00007   0.00000   0.00000
  52        4PZ         0.00000   0.00000   0.00000   0.00018   0.00000
                          41        42        43        44        45
  41        2S          2.38086
  42        2PX         0.00000   2.03181
  43        2PY         0.00000  -0.00000   2.04134
  44        2PZ         0.00000   0.00000   0.00000   2.04322
  45        3S         -0.11100   0.00000   0.00000   0.00000   0.69740
  46        3PX         0.00000  -0.04137  -0.00000   0.00000   0.00000
  47        3PY         0.00000   0.00000  -0.04853   0.00000   0.00000
  48        3PZ         0.00000   0.00000   0.00000  -0.04981   0.00000
  49        4S         -0.17099   0.00000   0.00000   0.00000   0.51164
  50        4PX         0.00000  -0.02254  -0.00000   0.00000   0.00000
  51        4PY         0.00000   0.00000  -0.02339   0.00000   0.00000
  52        4PZ         0.00000   0.00000   0.00000  -0.02377   0.00000
                          46        47        48        49        50
  46        3PX         0.62244
  47        3PY        -0.00000   0.66904
  48        3PZ         0.00000   0.00000   0.67543
  49        4S          0.00000   0.00000   0.00000   0.67861
  50        4PX         0.34688   0.00000   0.00000   0.00000   0.52376
  51        4PY         0.00000   0.37256   0.00000   0.00000  -0.00000
  52        4PZ         0.00000   0.00000   0.38247   0.00000   0.00000
                          51        52
  51        4PY         0.55629
  52        4PZ         0.00000   0.58406
     Gross orbital populations:
                         Total     Alpha     Beta      Spin
   1 1   Al 1S          1.99882   0.99952   0.99930   0.00022
   2        2S          1.97931   0.99273   0.98657   0.00616
   3        2PX         1.95829   0.97889   0.97940  -0.00051
   4        2PY         1.95829   0.97889   0.97940  -0.00051
   5        2PZ         1.96117   0.98284   0.97833   0.00451
   6        3S          0.65672   0.41901   0.23772   0.18129
   7        3PX         0.29054   0.14718   0.14337   0.00381
   8        3PY         0.29054   0.14718   0.14337   0.00381
   9        3PZ         0.36165   0.29197   0.06968   0.22229
  10        4S          0.34236   0.33930   0.00306   0.33625
  11        4PX         0.00871   0.00582   0.00289   0.00293
  12        4PY         0.00871   0.00582   0.00289   0.00293
  13        4PZ         0.20126   0.17502   0.02624   0.14878
  14 2   Cl 1S          1.99858   0.99930   0.99929   0.00001
  15        2S          1.95849   0.97936   0.97912   0.00024
  16        2PX         1.96999   0.98499   0.98500  -0.00001
  17        2PY         1.96628   0.98338   0.98290   0.00047
  18        2PZ         1.96948   0.98508   0.98440   0.00068
  19        3S          1.08390   0.54425   0.53965   0.00460
  20        3PX         1.03368   0.51711   0.51657   0.00054
  21        3PY         0.93220   0.47456   0.45765   0.01691
  22        3PZ         1.01614   0.52019   0.49595   0.02423
  23        4S          0.96381   0.47738   0.48643  -0.00905
  24        4PX         0.95434   0.47516   0.47918  -0.00401
  25        4PY         0.87091   0.43511   0.43580  -0.00070
  26        4PZ         0.94340   0.46942   0.47399  -0.00457
  27 3   Cl 1S          1.99858   0.99930   0.99929   0.00001
  28        2S          1.95849   0.97936   0.97912   0.00024
  29        2PX         1.96721   0.98378   0.98343   0.00035
  30        2PY         1.96906   0.98459   0.98447   0.00011
  31        2PZ         1.96948   0.98508   0.98440   0.00068
  32        3S          1.08390   0.54425   0.53965   0.00460
  33        3PX         0.95757   0.48520   0.47238   0.01282
  34        3PY         1.00831   0.50647   0.50184   0.00463
  35        3PZ         1.01614   0.52019   0.49595   0.02423
  36        4S          0.96381   0.47738   0.48643  -0.00905
  37        4PX         0.89177   0.44512   0.44665  -0.00153
  38        4PY         0.93348   0.46515   0.46833  -0.00319
  39        4PZ         0.94340   0.46942   0.47399  -0.00457
  40 4   Cl 1S          1.99858   0.99930   0.99929   0.00001
  41        2S          1.95849   0.97936   0.97912   0.00024
  42        2PX         1.96721   0.98378   0.98343   0.00035
  43        2PY         1.96906   0.98459   0.98447   0.00011
  44        2PZ         1.96948   0.98508   0.98440   0.00068
  45        3S          1.08390   0.54425   0.53965   0.00460
  46        3PX         0.95757   0.48520   0.47238   0.01282
  47        3PY         1.00831   0.50647   0.50184   0.00463
  48        3PZ         1.01614   0.52019   0.49595   0.02423
  49        4S          0.96381   0.47738   0.48643  -0.00905
  50        4PX         0.89177   0.44512   0.44665  -0.00153
  51        4PY         0.93348   0.46515   0.46833  -0.00319
  52        4PZ         0.94340   0.46942   0.47399  -0.00457
          Condensed to atoms (all electrons):
               1          2          3          4
     1  Al  11.751654   0.088234   0.088234   0.088234
     2  Cl   0.088234  17.602573  -0.014797  -0.014797
     3  Cl   0.088234  -0.014797  17.602573  -0.014797
     4  Cl   0.088234  -0.014797  -0.014797  17.602573
          Atomic-Atomic Spin Densities.
               1          2          3          4
     1  Al   1.221709  -0.103243  -0.103243  -0.103243
     2  Cl  -0.103243   0.124116   0.004234   0.004234
     3  Cl  -0.103243   0.004234   0.124116   0.004234
     4  Cl  -0.103243   0.004234   0.004234   0.124116
 Mulliken charges and spin densities:
               1          2
     1  Al   0.983643   0.911981
     2  Cl  -0.661214   0.029340
     3  Cl  -0.661214   0.029340
     4  Cl  -0.661214   0.029340
 Sum of Mulliken charges =  -1.00000   1.00000
 Mulliken charges and spin densities with hydrogens summed into heavy atoms:
               1          2
     1  Al   0.983643   0.911981
     2  Cl  -0.661214   0.029340
     3  Cl  -0.661214   0.029340
     4  Cl  -0.661214   0.029340
 Electronic spatial extent (au):  <R**2>=           1003.8596
 Charge=             -1.0000 electrons
 Dipole moment (field-independent basis, Debye):
    X=              0.0000    Y=              0.0000    Z=              1.9286  Tot=              1.9286
 Quadrupole moment (field-independent basis, Debye-Ang):
   XX=            -72.8142   YY=            -72.8142   ZZ=            -55.8873
   XY=              0.0000   XZ=             -0.0000   YZ=              0.0000
 Traceless Quadrupole moment (field-independent basis, Debye-Ang):
   XX=             -5.6423   YY=             -5.6423   ZZ=             11.2846
   XY=              0.0000   XZ=             -0.0000   YZ=              0.0000
 Octapole moment (field-independent basis, Debye-Ang**2):
  XXX=              0.0000  YYY=            -20.4619  ZZZ=             -9.4199  XYY=              0.0000
  XXY=             20.4619  XXZ=              1.7490  XZZ=              0.0000  YZZ=              0.0000
  YYZ=              1.7490  XYZ=              0.0000
 Hexadecapole moment (field-independent basis, Debye-Ang**3):
 XXXX=           -714.9094 YYYY=           -714.9094 ZZZZ=           -136.0420 XXXY=              0.0000
 XXXZ=             -0.0000 YYYX=              0.0000 YYYZ=              1.8147 ZZZX=             -0.0000
 ZZZY=             -0.0000 XXYY=           -238.3031 XXZZ=           -130.1550 YYZZ=           -130.1550
 XXYZ=             -1.8147 YYXZ=             -0.0000 ZZXY=              0.0000
 N-N= 2.771853875007D+02 E-N=-4.410769310462D+03  KE= 1.611171543974D+03
 Symmetry A'   KE= 1.088902716073D+03
 Symmetry A"   KE= 5.222688279009D+02
 Symmetry A'   SP= 1.000000000000D+00
 Symmetry A"   SP=-3.807528294389D-14
 Orbital energies and kinetic energies (alpha):
                                 1                 2
   1         (A1)--O        -103.916707        136.072668
   2         (E)--O         -103.916374        136.080936
   3         (E)--O         -103.916374        136.080936
   4         (A1)--O         -57.989907         78.662883
   5         (A1)--O         -10.308068         22.326816
   6         (E)--O          -10.306973         22.353302
   7         (E)--O          -10.306973         22.353302
   8         (E)--O           -7.771526         20.345084
   9         (E)--O           -7.771526         20.345084
  10         (A1)--O          -7.771415         20.348967
  11         (A1)--O          -7.767932         20.361772
  12         (E)--O           -7.767928         20.360878
  13         (E)--O           -7.767928         20.360878
  14         (A2)--O          -7.767648         20.362528
  15         (E)--O           -7.767493         20.370519
  16         (E)--O           -7.767493         20.370519
  17         (A1)--O          -4.790806         11.074957
  18         (A1)--O          -3.094736          9.736588
  19         (E)--O           -3.090805          9.716050
  20         (E)--O           -3.090805          9.716050
  21         (A1)--O          -0.908713          2.797920
  22         (E)--O           -0.892295          2.946301
  23         (E)--O           -0.892295          2.946301
  24         (A1)--O          -0.423352          1.813297
  25         (E)--O           -0.334465          2.042737
  26         (E)--O           -0.334465          2.042737
  27         (A1)--O          -0.315615          1.900258
  28         (E)--O           -0.294999          2.118121
  29         (E)--O           -0.294999          2.118121
  30         (E)--O           -0.279487          2.212679
  31         (E)--O           -0.279487          2.212679
  32         (A2)--O          -0.273336          2.253876
  33         (A1)--O          -0.149597          1.497890
  34         (E)--V            0.269687          0.847730
  35         (E)--V            0.269687          0.847730
  36         (A1)--V           0.302764          1.567947
  37         (A1)--V           0.424175          0.965969
  38         (A1)--V           0.491521          1.539262
  39         (E)--V            0.515640          1.789840
  40         (E)--V            0.515640          1.789840
  41         (E)--V            0.914350          3.327118
  42         (E)--V            0.914350          3.327118
  43         (A1)--V           0.938833          3.415639
  44         (E)--V            0.945850          3.531191
  45         (E)--V            0.945850          3.531191
  46         (A1)--V           1.015361          3.581228
  47         (A2)--V           1.047811          3.640153
  48         (E)--V            1.075866          3.612778
  49         (E)--V            1.075866          3.612778
  50         (E)--V            1.120776          3.785713
  51         (E)--V            1.120776          3.785713
  52         (A1)--V           1.290272          3.669499
 Orbital energies and kinetic energies (beta):
                                 1                 2
   1         (A1)--O        -103.915705        136.073137
   2         (E)--O         -103.915372        136.081401
   3         (E)--O         -103.915372        136.081401
   4         (A1)--O         -57.984534         78.662443
   5         (A1)--O         -10.306891         22.327640
   6         (E)--O          -10.305797         22.354060
   7         (E)--O          -10.305797         22.354060
   8         (E)--O           -7.768629         20.344071
   9         (E)--O           -7.768629         20.344071
  10         (A1)--O          -7.768544         20.346890
  11         (A2)--O          -7.767124         20.363108
  12         (E)--O           -7.767046         20.364892
  13         (E)--O           -7.767046         20.364892
  14         (A1)--O          -7.766428         20.361996
  15         (E)--O           -7.766374         20.366149
  16         (E)--O           -7.766374         20.366149
  17         (A1)--O          -4.780056         11.071664
  18         (E)--O           -3.086783          9.724350
  19         (E)--O           -3.086783          9.724350
  20         (A1)--O          -3.081779          9.739360
  21         (A1)--O          -0.899969          2.787135
  22         (E)--O           -0.883984          2.930837
  23         (E)--O           -0.883984          2.930837
  24         (A1)--O          -0.395024          1.903924
  25         (E)--O           -0.322245          2.006174
  26         (E)--O           -0.322245          2.006174
  27         (A1)--O          -0.300269          1.992839
  28         (E)--O           -0.286710          2.117723
  29         (E)--O           -0.286710          2.117723
  30         (E)--O           -0.277583          2.205408
  31         (E)--O           -0.277583          2.205408
  32         (A2)--O          -0.272026          2.247645
  33         (A1)--V           0.180447          1.075074
  34         (E)--V            0.305002          0.750614
  35         (E)--V            0.305002          0.750614
  36         (A1)--V           0.312793          1.507355
  37         (A1)--V           0.459842          1.185756
  38         (A1)--V           0.523796          1.578756
  39         (E)--V            0.538494          1.891181
  40         (E)--V            0.538494          1.891181
  41         (E)--V            0.916182          3.336571
  42         (E)--V            0.916182          3.336571
  43         (A1)--V           0.941259          3.416462
  44         (E)--V            0.950407          3.530020
  45         (E)--V            0.950407          3.530020
  46         (A1)--V           1.025650          3.618086
  47         (A2)--V           1.049053          3.645804
  48         (E)--V            1.078799          3.625164
  49         (E)--V            1.078799          3.625164
  50         (E)--V            1.130199          3.812362
  51         (E)--V            1.130199          3.812362
  52         (A1)--V           1.294509          3.685043
 Total kinetic energy from orbitals= 1.611171543974D+03
                          Isotropic Fermi Contact Couplings
        Atom                 a.u.       MegaHertz       Gauss      10(-4) cm-1
     1  Al(27)             0.80834     942.22847     336.21055     314.29359
     2  Cl(35)             0.05948      26.07866       9.30551       8.69890
     3  Cl(35)             0.05948      26.07866       9.30551       8.69890
     4  Cl(35)             0.05948      26.07866       9.30551       8.69890
 --------------------------------------------------------
       Center         ----  Spin Dipole Couplings  ----
                      3XX-RR        3YY-RR        3ZZ-RR
 --------------------------------------------------------
     1   Atom       -0.241095     -0.241095      0.482190
     2   Atom       -0.215181      0.050371      0.164810
     3   Atom       -0.016017     -0.148793      0.164810
     4   Atom       -0.016017     -0.148793      0.164810
 --------------------------------------------------------
                        XY            XZ            YZ
 --------------------------------------------------------
     1   Atom        0.000000      0.000000      0.000000
     2   Atom       -0.000000      0.000000     -0.299112
     3   Atom       -0.114987     -0.259039      0.149556
     4   Atom        0.114987      0.259039      0.149556
 --------------------------------------------------------


 ---------------------------------------------------------------------------------
              Anisotropic Spin Dipole Couplings in Principal Axis System
 ---------------------------------------------------------------------------------

       Atom             a.u.   MegaHertz   Gauss  10(-4) cm-1        Axes

              Baa    -0.2411   -33.545   -11.970   -11.189 -0.0356  0.9994 -0.0000
     1 Al(27) Bbb    -0.2411   -33.545   -11.970   -11.189  0.9994  0.0356  0.0000
              Bcc     0.4822    67.090    23.939    22.379  0.0000  0.0000  1.0000
 
              Baa    -0.2152   -11.262    -4.019    -3.757  1.0000  0.0000  0.0000
     2 Cl(35) Bbb    -0.1969   -10.308    -3.678    -3.438 -0.0000  0.7707  0.6372
              Bcc     0.4121    21.570     7.697     7.195  0.0000 -0.6372  0.7707
 
              Baa    -0.2152   -11.262    -4.019    -3.757  0.5000  0.8660 -0.0000
     3 Cl(35) Bbb    -0.1969   -10.308    -3.678    -3.438  0.6674 -0.3853  0.6372
              Bcc     0.4121    21.570     7.697     7.195 -0.5519  0.3186  0.7707
 
              Baa    -0.2152   -11.262    -4.019    -3.757 -0.5000  0.8660  0.0000
     4 Cl(35) Bbb    -0.1969   -10.308    -3.678    -3.438  0.6674  0.3853 -0.6372
              Bcc     0.4121    21.570     7.697     7.195  0.5519  0.3186  0.7707
 

 ---------------------------------------------------------------------------------

 1\1\GINC-IISERK51\SP\UHF\3-21G\Al1Cl3(1-,2)\GAUSSIAN\13-Jun-2025\0\\# 
 hf/3-21g pop=full geom=connectivity\\Title Card Required\\-1,2\Al,0,0.
 ,0.,0.677292\Cl,0,0.,2.131332,-0.172643\Cl,0,1.845788,-1.065666,-0.172
 643\Cl,0,-1.845788,-1.065666,-0.172643\\Version=EM64L-G16RevB.01\State
 =2-A1\HF=-1612.7744527\S2=0.752223\S2-1=0.\S2A=0.750002\RMSD=4.567e-09
 \Dipole=0.,0.,0.758754\Quadrupole=-4.1949081,-4.1949081,8.3898162,0.,0
 .,0.\PG=C03V [C3(Al1),3SGV(Cl1)]\\@


 DEFINE YOUR TERMS, YOU WILL PERMIT ME AGAIN TO SAY, 
 OR WE SHALL NEVER UNDERSTAND ONE ANOTHER.

                                    -- VOLTAIRE
 Job cpu time:       0 days  0 hours  0 minutes  0.5 seconds.
 Elapsed time:       0 days  0 hours  0 minutes  0.5 seconds.
 File lengths (MBytes):  RWF=      6 Int=      0 D2E=      0 Chk=      1 Scr=      1
 Normal termination of Gaussian 16 at Fri Jun 13 21:42:17 2025.
