 Entering Gaussian System, Link 0=g16
 Input=/home/gaussian/Documents/program files/Aromaticity/AM1 HF3-21G*/cyclobutadiene/sp/meth_cyclobutadiene_sp.com
 Output=/home/gaussian/Documents/program files/Aromaticity/AM1 HF3-21G*/cyclobutadiene/sp/meth_cyclobutadiene_sp.log
 Initial command:
 /usr/local/g16/l1.exe "/home/gaussian/tmp/Gau-142816.inp" -scrdir="/home/gaussian/tmp/"
 Entering Link 1 = /usr/local/g16/l1.exe PID=    142819.
  
 Copyright (c) 1988-2017, Gaussian, Inc.  All Rights Reserved.
  
 This is part of the Gaussian(R) 16 program.  It is based on
 the Gaussian(R) 09 system (copyright 2009, Gaussian, Inc.),
 the Gaussian(R) 03 system (copyright 2003, Gaussian, Inc.),
 the Gaussian(R) 98 system (copyright 1998, Gaussian, Inc.),
 the Gaussian(R) 94 system (copyright 1995, Gaussian, Inc.),
 the Gaussian 92(TM) system (copyright 1992, Gaussian, Inc.),
 the Gaussian 90(TM) system (copyright 1990, Gaussian, Inc.),
 the Gaussian 88(TM) system (copyright 1988, Gaussian, Inc.),
 the Gaussian 86(TM) system (copyright 1986, Carnegie Mellon
 University), and the Gaussian 82(TM) system (copyright 1983,
 Carnegie Mellon University). Gaussian is a federally registered
 trademark of Gaussian, Inc.
  
 This software contains proprietary and confidential information,
 including trade secrets, belonging to Gaussian, Inc.
  
 This software is provided under written license and may be
 used, copied, transmitted, or stored only in accord with that
 written license.
  
 The following legend is applicable only to US Government
 contracts under FAR:
  
                    RESTRICTED RIGHTS LEGEND
  
 Use, reproduction and disclosure by the US Government is
 subject to restrictions as set forth in subparagraphs (a)
 and (c) of the Commercial Computer Software - Restricted
 Rights clause in FAR 52.227-19.
  
 Gaussian, Inc.
 340 Quinnipiac St., Bldg. 40, Wallingford CT 06492
  
  
 ---------------------------------------------------------------
 Warning -- This program may not be used in any manner that
 competes with the business of Gaussian, Inc. or will provide
 assistance to any competitor of Gaussian, Inc.  The licensee
 of this program is prohibited from giving any competitor of
 Gaussian, Inc. access to this program.  By using this program,
 the user acknowledges that Gaussian, Inc. is engaged in the
 business of creating and licensing software in the field of
 computational chemistry and represents and warrants to the
 licensee that it is not a competitor of Gaussian, Inc. and that
 it will not use this program in any manner prohibited above.
 ---------------------------------------------------------------
  

 Cite this work as:
 Gaussian 16, Revision B.01,
 M. J. Frisch, G. W. Trucks, H. B. Schlegel, G. E. Scuseria, 
 M. A. Robb, J. R. Cheeseman, G. Scalmani, V. Barone, 
 G. A. Petersson, H. Nakatsuji, X. Li, M. Caricato, A. V. Marenich, 
 J. Bloino, B. G. Janesko, R. Gomperts, B. Mennucci, H. P. Hratchian, 
 J. V. Ortiz, A. F. Izmaylov, J. L. Sonnenberg, D. Williams-Young, 
 F. Ding, F. Lipparini, F. Egidi, J. Goings, B. Peng, A. Petrone, 
 T. Henderson, D. Ranasinghe, V. G. Zakrzewski, J. Gao, N. Rega, 
 G. Zheng, W. Liang, M. Hada, M. Ehara, K. Toyota, R. Fukuda, 
 J. Hasegawa, M. Ishida, T. Nakajima, Y. Honda, O. Kitao, H. Nakai, 
 T. Vreven, K. Throssell, J. A. Montgomery, Jr., J. E. Peralta, 
 F. Ogliaro, M. J. Bearpark, J. J. Heyd, E. N. Brothers, K. N. Kudin, 
 V. N. Staroverov, T. A. Keith, R. Kobayashi, J. Normand, 
 K. Raghavachari, A. P. Rendell, J. C. Burant, S. S. Iyengar, 
 J. Tomasi, M. Cossi, J. M. Millam, M. Klene, C. Adamo, R. Cammi, 
 J. W. Ochterski, R. L. Martin, K. Morokuma, O. Farkas, 
 J. B. Foresman, and D. J. Fox, Gaussian, Inc., Wallingford CT, 2016.
 
 ******************************************
 Gaussian 16:  EM64L-G16RevB.01 20-Dec-2017
                12-Jun-2025 
 ******************************************
 %chk=meth_cyclobutadiene_sp.chk
 --------------------------------------
 # hf/3-21g* pop=full geom=connectivity
 --------------------------------------
 1/38=1,57=2,172=1/1;
 2/12=2,17=6,18=5,40=1/2;
 3/5=5,7=1,11=9,25=1,30=1/1,2,3;
 4//1;
 5/5=2,38=5/2;
 6/7=3,28=1/1;
 99/5=1,9=1/99;
 ------------
 Optimisation
 ------------
 Symbolic Z-matrix:
 Charge =  0 Multiplicity = 1
 C                    -0.68293  -1.00069   0.00005 
 C                    -1.6151   -0.01955  -0.00002 
 C                    -0.50587   1.0456    0.00003 
 C                     0.43604   0.06872  -0.00001 
 H                    -0.63432  -2.07636   0.00008 
 H                    -2.68827   0.07481  -0.00005 
 H                    -0.55103   2.12151   0.00003 
 C                     1.8783   -0.06167  -0.00003 
 H                     2.21749  -0.62747  -0.90605 
 H                     2.37592   0.94025  -0.00025 
 H                     2.21755  -0.62709   0.9062 
 
                          Input orientation:                          
 ---------------------------------------------------------------------
 Center     Atomic      Atomic             Coordinates (Angstroms)
 Number     Number       Type             X           Y           Z
 ---------------------------------------------------------------------
      1          6           0       -0.682932   -1.000694    0.000045
      2          6           0       -1.615096   -0.019554   -0.000021
      3          6           0       -0.505869    1.045596    0.000025
      4          6           0        0.436042    0.068715   -0.000007
      5          1           0       -0.634317   -2.076364    0.000075
      6          1           0       -2.688273    0.074805   -0.000051
      7          1           0       -0.551026    2.121507    0.000026
      8          6           0        1.878297   -0.061670   -0.000032
      9          1           0        2.217492   -0.627465   -0.906050
     10          1           0        2.375916    0.940253   -0.000251
     11          1           0        2.217552   -0.627094    0.906196
 ---------------------------------------------------------------------
                    Distance matrix (angstroms):
                    1          2          3          4          5
     1  C    0.000000
     2  C    1.353353   0.000000
     3  C    2.053936   1.537833   0.000000
     4  C    1.547817   2.053036   1.357016   0.000000
     5  H    1.076768   2.278683   3.124601   2.397297   0.000000
     6  H    2.275542   1.077317   2.388582   3.124321   2.974267
     7  H    3.124986   2.390897   1.076858   2.277775   4.198697
     8  C    2.727941   3.493647   2.628742   1.448137   3.220593
     9  H    3.061498   3.984868   3.322168   2.116399   3.324633
    10  H    3.622682   4.104803   2.883710   2.126662   4.261629
    11  H    3.061616   3.984912   3.322057   2.116396   3.324845
                    6          7          8          9         10
     6  H    0.000000
     7  H    2.959191   0.000000
     8  C    4.568609   3.266171   0.000000
     9  H    5.037911   4.005311   1.120735   0.000000
    10  H    5.137607   3.156319   1.118693   1.817501   0.000000
    11  H    5.037962   4.005119   1.120735   1.812246   1.817499
                   11
    11  H    0.000000
 Stoichiometry    C5H6
 Framework group  C1[X(C5H6)]
 Deg. of freedom    27
 Full point group                 C1      NOp   1
 Largest Abelian subgroup         C1      NOp   1
 Largest concise Abelian subgroup C1      NOp   1
                         Standard orientation:                         
 ---------------------------------------------------------------------
 Center     Atomic      Atomic             Coordinates (Angstroms)
 Number     Number       Type             X           Y           Z
 ---------------------------------------------------------------------
      1          6           0       -0.682932   -1.000694    0.000045
      2          6           0       -1.615096   -0.019554   -0.000021
      3          6           0       -0.505869    1.045596    0.000025
      4          6           0        0.436042    0.068715   -0.000007
      5          1           0       -0.634317   -2.076364    0.000075
      6          1           0       -2.688273    0.074805   -0.000051
      7          1           0       -0.551026    2.121507    0.000026
      8          6           0        1.878297   -0.061670   -0.000032
      9          1           0        2.217492   -0.627465   -0.906050
     10          1           0        2.375916    0.940253   -0.000251
     11          1           0        2.217552   -0.627094    0.906196
 ---------------------------------------------------------------------
 Rotational constants (GHZ):          13.4901105           4.6062965           3.5128010
 Standard basis: 3-21G* (6D, 7F)
 There are    57 symmetry adapted cartesian basis functions of A   symmetry.
 There are    57 symmetry adapted basis functions of A   symmetry.
    57 basis functions,    93 primitive gaussians,    57 cartesian basis functions
    18 alpha electrons       18 beta electrons
       nuclear repulsion energy       150.7854552881 Hartrees.
 NAtoms=   11 NActive=   11 NUniq=   11 SFac= 1.00D+00 NAtFMM=   60 NAOKFM=F Big=F
 Integral buffers will be    131072 words long.
 Raffenetti 1 integral format.
 Two-electron integral symmetry is turned on.
 One-electron integrals computed using PRISM.
 NBasis=    57 RedAO= T EigKep=  1.51D-03  NBF=    57
 NBsUse=    57 1.00D-06 EigRej= -1.00D+00 NBFU=    57
 ExpMin= 1.83D-01 ExpMax= 1.72D+02 ExpMxC= 1.72D+02 IAcc=3 IRadAn=         5 AccDes= 0.00D+00
 Harris functional with IExCor=  205 and IRadAn=       5 diagonalized for initial guess.
 HarFok:  IExCor=  205 AccDes= 0.00D+00 IRadAn=         5 IDoV= 1 UseB2=F ITyADJ=14
 ICtDFT=  3500011 ScaDFX=  1.000000  1.000000  1.000000  1.000000
 FoFCou: FMM=F IPFlag=           0 FMFlag=      100000 FMFlg1=           0
         NFxFlg=           0 DoJE=T BraDBF=F KetDBF=T FulRan=T
         wScrn=  0.000000 ICntrl=       500 IOpCl=  0 I1Cent=   200000004 NGrid=           0
         NMat0=    1 NMatS0=      1 NMatT0=    0 NMatD0=    1 NMtDS0=    0 NMtDT0=    0
 Petite list used in FoFCou.
 Keep R1 ints in memory in canonical form, NReq=2188265.
 Requested convergence on RMS density matrix=1.00D-08 within 128 cycles.
 Requested convergence on MAX density matrix=1.00D-06.
 Requested convergence on             energy=1.00D-06.
 No special actions if energy rises.
 SCF Done:  E(RHF) =  -191.588687185     A.U. after   13 cycles
            NFock= 13  Conv=0.98D-08     -V/T= 2.0024

 **********************************************************************

            Population analysis using the SCF Density.

 **********************************************************************

 Orbital symmetries:
       Occupied  (A) (A) (A) (A) (A) (A) (A) (A) (A) (A) (A) (A)
                 (A) (A) (A) (A) (A) (A)
       Virtual   (A) (A) (A) (A) (A) (A) (A) (A) (A) (A) (A) (A)
                 (A) (A) (A) (A) (A) (A) (A) (A) (A) (A) (A) (A)
                 (A) (A) (A) (A) (A) (A) (A) (A) (A) (A) (A) (A)
                 (A) (A) (A)
 The electronic state is 1-A.
 Alpha  occ. eigenvalues --  -11.19474 -11.18821 -11.17977 -11.17710 -11.17282
 Alpha  occ. eigenvalues --   -1.17180  -1.00215  -0.88178  -0.80471  -0.69065
 Alpha  occ. eigenvalues --   -0.65536  -0.59616  -0.57569  -0.54679  -0.49852
 Alpha  occ. eigenvalues --   -0.45757  -0.44632  -0.25877
 Alpha virt. eigenvalues --    0.09857   0.26683   0.28429   0.30516   0.30881
 Alpha virt. eigenvalues --    0.33155   0.35207   0.36565   0.37070   0.45418
 Alpha virt. eigenvalues --    0.51508   0.55736   0.78551   0.86797   0.92029
 Alpha virt. eigenvalues --    0.95132   0.97257   1.00156   1.01775   1.06186
 Alpha virt. eigenvalues --    1.10513   1.16134   1.17642   1.18133   1.24203
 Alpha virt. eigenvalues --    1.27865   1.31497   1.31719   1.33463   1.35594
 Alpha virt. eigenvalues --    1.36478   1.51475   1.57190   1.59663   1.69990
 Alpha virt. eigenvalues --    1.94557   2.07804   2.27264   2.58468
     Molecular Orbital Coefficients:
                           1         2         3         4         5
                           O         O         O         O         O
     Eigenvalues --   -11.19474 -11.18821 -11.17977 -11.17710 -11.17282
   1 1   C  1S         -0.01628  -0.01520   0.98707   0.01494   0.00010
   2        2S         -0.00448  -0.00638   0.09952   0.00144  -0.00003
   3        2PX         0.00020   0.00084   0.00022  -0.00010   0.00000
   4        2PY         0.00008  -0.00148   0.00225   0.00015  -0.00015
   5        2PZ        -0.00000   0.00000  -0.00000  -0.00000  -0.00000
   6        3S          0.03329   0.04980  -0.09415   0.00304  -0.01919
   7        3PX         0.00612  -0.01095   0.00295   0.00061   0.00192
   8        3PY         0.01763   0.02812  -0.03701   0.00405  -0.01308
   9        3PZ        -0.00000  -0.00000   0.00000   0.00000   0.00000
  10 2   C  1S          0.00494   0.98716   0.01436   0.00244   0.01594
  11        2S          0.00079   0.09949  -0.00339  -0.00019  -0.00161
  12        2PX         0.00008   0.00222  -0.00130  -0.00018   0.00014
  13        2PY        -0.00003   0.00014   0.00082   0.00005   0.00045
  14        2PZ         0.00000   0.00000  -0.00000  -0.00000   0.00000
  15        3S         -0.01736  -0.09502   0.04747  -0.00208   0.03723
  16        3PX        -0.01168  -0.03686   0.02621   0.00152   0.02189
  17        3PY         0.00136   0.00549  -0.01181  -0.00094   0.00486
  18        3PZ        -0.00000  -0.00000   0.00000  -0.00000   0.00000
  19 3   C  1S         -0.00683  -0.01686  -0.00016  -0.01416   0.98718
  20        2S         -0.00540  -0.00483  -0.00009  -0.00152   0.09975
  21        2PX        -0.00099  -0.00034  -0.00007  -0.00013  -0.00043
  22        2PY         0.00137   0.00002   0.00015   0.00007  -0.00225
  23        2PZ         0.00000  -0.00000  -0.00000  -0.00000  -0.00000
  24        3S          0.04381   0.03829  -0.01807   0.00946  -0.09782
  25        3PX         0.01125  -0.00647   0.00064   0.00030  -0.00572
  26        3PY        -0.02288  -0.02231   0.01236  -0.00743   0.03867
  27        3PZ        -0.00000  -0.00000   0.00000  -0.00000   0.00000
  28 4   C  1S          0.98720  -0.00513   0.01513   0.00976   0.00601
  29        2S          0.09956  -0.00005  -0.00151  -0.00096  -0.00431
  30        2PX        -0.00161   0.00009   0.00010  -0.00216   0.00158
  31        2PY        -0.00010  -0.00008   0.00000   0.00005  -0.00137
  32        2PZ         0.00000   0.00000  -0.00000   0.00000  -0.00000
  33        3S         -0.09339  -0.02167   0.03413   0.01901   0.04933
  34        3PX         0.02512   0.01273  -0.02368   0.03087  -0.03060
  35        3PY        -0.00541  -0.00069  -0.00828  -0.00330   0.01687
  36        3PZ        -0.00000  -0.00000   0.00000  -0.00000   0.00000
  37 5   H  1S         -0.00020   0.00007  -0.00381   0.00031  -0.00060
  38        2S          0.00316   0.00625   0.00097   0.00148  -0.00285
  39 6   H  1S         -0.00049  -0.00374  -0.00012   0.00028  -0.00009
  40        2S         -0.00251   0.00105   0.00609   0.00120   0.00473
  41 7   H  1S         -0.00030   0.00008  -0.00056   0.00063  -0.00380
  42        2S          0.00463   0.00472  -0.00261   0.00198   0.00059
  43 8   C  1S         -0.00981  -0.00252  -0.01510   0.98743   0.01413
  44        2S         -0.00271  -0.00066  -0.00164   0.10258   0.00130
  45        2PX         0.00178   0.00019   0.00022   0.00026   0.00016
  46        2PY        -0.00042   0.00010   0.00014  -0.00013  -0.00004
  47        2PZ         0.00000  -0.00000  -0.00000   0.00000  -0.00000
  48        3S          0.00507  -0.00201   0.00640  -0.09380   0.00666
  49        3PX        -0.00654   0.00014  -0.00272   0.01216  -0.00408
  50        3PY         0.00260  -0.00074   0.00242  -0.00065  -0.00310
  51        3PZ        -0.00000   0.00000   0.00000  -0.00000   0.00000
  52 9   H  1S         -0.00084  -0.00013   0.00003   0.00096  -0.00025
  53        2S          0.00256  -0.00005   0.00033   0.01358   0.00003
  54 10  H  1S         -0.00072  -0.00009  -0.00044   0.00085   0.00016
  55        2S          0.00014   0.00067   0.00006   0.01339   0.00175
  56 11  H  1S         -0.00084  -0.00013   0.00003   0.00096  -0.00025
  57        2S          0.00256  -0.00005   0.00033   0.01358   0.00003
                           6         7         8         9        10
                           O         O         O         O         O
     Eigenvalues --    -1.17180  -1.00215  -0.88178  -0.80471  -0.69065
   1 1   C  1S         -0.11233   0.04840   0.12654   0.08061   0.06895
   2        2S          0.12306  -0.05206  -0.12994  -0.08242  -0.07233
   3        2PX        -0.01018   0.06061   0.06893  -0.12028  -0.01732
   4        2PY         0.09794  -0.03837   0.01481   0.03000   0.24589
   5        2PZ        -0.00001   0.00000   0.00000  -0.00000  -0.00001
   6        3S          0.18101  -0.10362  -0.36895  -0.25009  -0.22349
   7        3PX        -0.00120   0.00169   0.00980  -0.03848  -0.01533
   8        3PY         0.03634  -0.01831  -0.02263  -0.00329   0.19434
   9        3PZ        -0.00000   0.00000   0.00000   0.00000  -0.00001
  10 2   C  1S         -0.11127   0.07837   0.07055  -0.13157  -0.03443
  11        2S          0.12260  -0.08130  -0.07465   0.13625   0.03941
  12        2PX         0.09753  -0.03795   0.00834  -0.09336   0.07271
  13        2PY        -0.01745   0.02382   0.13196   0.06663  -0.00651
  14        2PZ         0.00000  -0.00000  -0.00000  -0.00000   0.00000
  15        3S          0.19111  -0.19831  -0.19669   0.41904   0.05173
  16        3PX         0.04289  -0.04402  -0.00270  -0.02960   0.01996
  17        3PY        -0.00236   0.00570   0.02674   0.02531  -0.00017
  18        3PZ         0.00000  -0.00000  -0.00000   0.00000  -0.00000
  19 3   C  1S         -0.11259   0.01027  -0.14602  -0.04822   0.07127
  20        2S          0.12292  -0.01197   0.15049   0.04629  -0.07462
  21        2PX         0.01666   0.05502   0.07380  -0.11657   0.00883
  22        2PY        -0.09832   0.01935  -0.00999   0.06382  -0.23479
  23        2PZ        -0.00000   0.00000  -0.00000  -0.00000  -0.00000
  24        3S          0.17568  -0.02019   0.41748   0.18161  -0.22847
  25        3PX        -0.00008   0.00412   0.01408  -0.03266   0.00819
  26        3PY        -0.03342   0.01219  -0.04270   0.00634  -0.18401
  27        3PZ        -0.00000   0.00000  -0.00000  -0.00000  -0.00000
  28 4   C  1S         -0.12496  -0.08737  -0.05487   0.08967  -0.03142
  29        2S          0.13803   0.09612   0.05665  -0.09005   0.03563
  30        2PX        -0.08033   0.14169  -0.08173   0.07069  -0.06307
  31        2PY         0.01604   0.00200   0.14867   0.05478  -0.00252
  32        2PZ         0.00000  -0.00000   0.00000  -0.00001  -0.00000
  33        3S          0.20737   0.18366   0.16047  -0.31090   0.04727
  34        3PX        -0.06779  -0.00437  -0.02960   0.06472  -0.01166
  35        3PY         0.00492  -0.00161   0.03053   0.01737  -0.00538
  36        3PZ         0.00000   0.00000   0.00000  -0.00000  -0.00000
  37 5   H  1S          0.03279  -0.01731  -0.09896  -0.08246  -0.20272
  38        2S          0.00679  -0.00424  -0.04776  -0.04527  -0.11494
  39 6   H  1S          0.03245  -0.03712  -0.05184   0.15415  -0.00479
  40        2S          0.00785  -0.01935  -0.02036   0.07953  -0.01087
  41 7   H  1S          0.03237  -0.00121   0.10319   0.06967  -0.19752
  42        2S          0.00597  -0.00120   0.05146   0.04299  -0.11289
  43 8   C  1S         -0.03956  -0.18201   0.05883  -0.06248  -0.00369
  44        2S          0.03506   0.17512  -0.05477   0.05710   0.00253
  45        2PX        -0.03416  -0.05554  -0.02272   0.07763   0.00467
  46        2PY         0.00298   0.00495   0.02741   0.00944  -0.00378
  47        2PZ         0.00000   0.00000   0.00000  -0.00000   0.00000
  48        3S          0.12766   0.53613  -0.19564   0.21222   0.01145
  49        3PX        -0.01970  -0.02797  -0.00377   0.03940   0.00791
  50        3PY         0.00079  -0.00075   0.02064   0.00899  -0.00161
  51        3PZ        -0.00000   0.00000  -0.00000  -0.00000  -0.00000
  52 9   H  1S          0.01368   0.08895  -0.04411   0.04943   0.00481
  53        2S         -0.00651   0.00445  -0.01515   0.02220  -0.00012
  54 10  H  1S          0.01344   0.08863  -0.02910   0.06224   0.00070
  55        2S         -0.00506   0.00798  -0.00680   0.02759  -0.00378
  56 11  H  1S          0.01368   0.08895  -0.04411   0.04944   0.00481
  57        2S         -0.00651   0.00445  -0.01515   0.02220  -0.00012
                          11        12        13        14        15
                           O         O         O         O         O
     Eigenvalues --    -0.65536  -0.59616  -0.57569  -0.54679  -0.49852
   1 1   C  1S          0.03093  -0.01227  -0.00000  -0.01753   0.00437
   2        2S         -0.03647   0.01537  -0.00000   0.02068   0.00135
   3        2PX         0.05427  -0.14612   0.00000  -0.18859  -0.15788
   4        2PY        -0.06167  -0.05496   0.00000   0.19817   0.00776
   5        2PZ         0.00000   0.00000   0.05533  -0.00001  -0.00001
   6        3S         -0.01891   0.03864   0.00001   0.06531  -0.01816
   7        3PX         0.01631  -0.08943  -0.00000  -0.12340  -0.10749
   8        3PY         0.01653  -0.05164   0.00001   0.19697   0.00052
   9        3PZ        -0.00000   0.00000   0.05020  -0.00001  -0.00000
  10 2   C  1S         -0.03959  -0.00097   0.00000  -0.01758   0.00927
  11        2S          0.04429   0.00500   0.00000   0.02273  -0.00139
  12        2PX        -0.24961  -0.01844  -0.00001   0.16638  -0.09224
  13        2PY         0.03167  -0.13160   0.00000  -0.21346  -0.21860
  14        2PZ        -0.00001   0.00000   0.04869   0.00001  -0.00000
  15        3S          0.08948  -0.00101  -0.00001   0.02587  -0.05343
  16        3PX        -0.22867  -0.01901  -0.00001   0.14029  -0.10379
  17        3PY         0.02439  -0.08625   0.00000  -0.12956  -0.16999
  18        3PZ        -0.00001   0.00000   0.04049   0.00001  -0.00000
  19 3   C  1S          0.03813   0.00946  -0.00000   0.01782  -0.01005
  20        2S         -0.04168  -0.00383   0.00000  -0.01740   0.02005
  21        2PX         0.05759   0.16494  -0.00000  -0.03956   0.27264
  22        2PY        -0.00147  -0.06359  -0.00000   0.21065   0.00376
  23        2PZ        -0.00000  -0.00000   0.08312   0.00001   0.00000
  24        3S         -0.05251  -0.04976   0.00001  -0.03365  -0.01388
  25        3PX         0.02654   0.10178  -0.00000  -0.01224   0.17429
  26        3PY        -0.05781  -0.04639  -0.00001   0.17630   0.03366
  27        3PZ        -0.00000  -0.00000   0.07659   0.00000   0.00000
  28 4   C  1S         -0.09563  -0.00117   0.00000   0.00245  -0.01010
  29        2S          0.10242   0.00763  -0.00000   0.00191   0.01364
  30        2PX         0.15857  -0.00974  -0.00000   0.21949  -0.09201
  31        2PY        -0.01123   0.21917  -0.00000  -0.06584   0.19266
  32        2PZ        -0.00000   0.00000   0.14632  -0.00001   0.00000
  33        3S          0.30871  -0.01009  -0.00000  -0.02092   0.05415
  34        3PX         0.18260   0.00344   0.00000   0.22120  -0.09618
  35        3PY        -0.02263   0.15130  -0.00000  -0.04137   0.17315
  36        3PZ        -0.00000   0.00000   0.11391  -0.00001   0.00000
  37 5   H  1S          0.00364   0.04656   0.00000  -0.12404  -0.01512
  38        2S          0.01950   0.02869   0.00000  -0.09085  -0.01282
  39 6   H  1S          0.18894   0.00698   0.00000  -0.10838   0.04984
  40        2S          0.11061   0.00274   0.00000  -0.08528   0.03686
  41 7   H  1S         -0.04163  -0.05409  -0.00000   0.12892   0.01261
  42        2S         -0.01068  -0.03825   0.00000   0.10293  -0.00024
  43 8   C  1S          0.03674  -0.00195   0.00000  -0.00491   0.00642
  44        2S         -0.02111   0.00233  -0.00000   0.01342  -0.00951
  45        2PX        -0.25198   0.04737   0.00001  -0.19200   0.06149
  46        2PY         0.02054   0.28061  -0.00000   0.03107  -0.22995
  47        2PZ         0.00000  -0.00000   0.34223   0.00001   0.00000
  48        3S         -0.22922   0.00762   0.00000  -0.04716   0.00248
  49        3PX        -0.11973   0.03897   0.00001  -0.11101   0.03078
  50        3PY         0.01055   0.22709  -0.00000   0.02752  -0.23440
  51        3PZ         0.00000  -0.00000   0.28977   0.00001   0.00000
  52 9   H  1S         -0.07891  -0.08365  -0.19157  -0.04812   0.09817
  53        2S         -0.06441  -0.07254  -0.17243  -0.05528   0.10185
  54 10  H  1S         -0.08379   0.18455  -0.00004  -0.03387  -0.14591
  55        2S         -0.06786   0.15696  -0.00004  -0.03987  -0.13734
  56 11  H  1S         -0.07891  -0.08359   0.19162  -0.04811   0.09811
  57        2S         -0.06441  -0.07249   0.17247  -0.05527   0.10180
                          16        17        18        19        20
                           O         O         O         V         V
     Eigenvalues --    -0.45757  -0.44632  -0.25877   0.09857   0.26683
   1 1   C  1S         -0.00000   0.03198   0.00000   0.00000  -0.00000
   2        2S         -0.00000  -0.02580  -0.00000  -0.00000  -0.00000
   3        2PX        -0.00001  -0.18243  -0.00000   0.00000   0.00001
   4        2PY         0.00001  -0.18626  -0.00002  -0.00001   0.00001
   5        2PZ         0.22374   0.00001  -0.24679  -0.21437  -0.19614
   6        3S          0.00003  -0.16912  -0.00002  -0.00003   0.00005
   7        3PX        -0.00001  -0.13381  -0.00000  -0.00000   0.00010
   8        3PY         0.00003  -0.22111  -0.00002  -0.00002   0.00005
   9        3PZ         0.22499   0.00001  -0.34620  -0.42541  -0.54832
  10 2   C  1S          0.00000  -0.02925  -0.00000   0.00000  -0.00001
  11        2S          0.00000   0.02601   0.00000  -0.00000   0.00001
  12        2PX        -0.00001   0.17773   0.00002  -0.00001   0.00000
  13        2PY         0.00001   0.10812   0.00000   0.00000   0.00001
  14        2PZ         0.22720   0.00001  -0.22777   0.22731   0.22248
  15        3S         -0.00003   0.15436   0.00002  -0.00003   0.00014
  16        3PX        -0.00003   0.21454   0.00002  -0.00001  -0.00003
  17        3PY         0.00001   0.06903   0.00000   0.00000   0.00005
  18        3PZ         0.23376   0.00001  -0.31062   0.44737   0.58767
  19 3   C  1S         -0.00000  -0.03278  -0.00000  -0.00000   0.00001
  20        2S          0.00000   0.02880   0.00000   0.00000  -0.00001
  21        2PX        -0.00000  -0.10115  -0.00001  -0.00000   0.00001
  22        2PY        -0.00001  -0.18500  -0.00001  -0.00001   0.00000
  23        2PZ         0.20314  -0.00002   0.26550   0.20032  -0.21581
  24        3S          0.00004   0.18887   0.00003   0.00002  -0.00002
  25        3PX         0.00000  -0.08568  -0.00000  -0.00001   0.00010
  26        3PY        -0.00004  -0.24588  -0.00002   0.00000  -0.00002
  27        3PZ         0.20161  -0.00002   0.36712   0.39645  -0.53277
  28 4   C  1S          0.00000   0.02349   0.00000  -0.00000   0.00001
  29        2S          0.00000  -0.01363  -0.00000   0.00000   0.00000
  30        2PX         0.00001   0.19112   0.00001  -0.00001   0.00001
  31        2PY         0.00001   0.17612   0.00001  -0.00000   0.00001
  32        2PZ         0.16900  -0.00002   0.23932  -0.23316   0.20636
  33        3S         -0.00003  -0.17323  -0.00002   0.00004  -0.00017
  34        3PX         0.00005   0.25572   0.00002  -0.00003   0.00013
  35        3PY        -0.00000   0.14480   0.00000  -0.00001   0.00002
  36        3PZ         0.18985  -0.00002   0.32525  -0.43574   0.41830
  37 5   H  1S          0.00000   0.11725   0.00000   0.00000  -0.00001
  38        2S          0.00001   0.10728   0.00001   0.00001   0.00004
  39 6   H  1S         -0.00000  -0.11154  -0.00001   0.00000  -0.00000
  40        2S         -0.00001  -0.09758  -0.00001   0.00002  -0.00009
  41 7   H  1S         -0.00001  -0.11588  -0.00001  -0.00000  -0.00001
  42        2S          0.00000  -0.09768  -0.00001  -0.00002   0.00004
  43 8   C  1S         -0.00000  -0.01772  -0.00000   0.00000   0.00002
  44        2S          0.00000   0.02324   0.00000  -0.00000  -0.00001
  45        2PX        -0.00001  -0.15941  -0.00001   0.00001  -0.00001
  46        2PY        -0.00001  -0.07546   0.00000   0.00000   0.00000
  47        2PZ        -0.13525   0.00001  -0.04477   0.01617   0.12581
  48        3S         -0.00001   0.01471   0.00000  -0.00001  -0.00030
  49        3PX        -0.00000  -0.10349  -0.00000   0.00001  -0.00006
  50        3PY        -0.00000  -0.09320   0.00001   0.00003   0.00001
  51        3PZ        -0.14988   0.00001  -0.03844  -0.00289   0.57432
  52 9   H  1S          0.09197   0.01238   0.05447  -0.05844   0.06828
  53        2S          0.09631   0.00107   0.10779  -0.14247   0.69125
  54 10  H  1S          0.00002  -0.10078   0.00001  -0.00001   0.00001
  55        2S          0.00001  -0.12805   0.00001  -0.00005   0.00029
  56 11  H  1S         -0.09199   0.01236  -0.05448   0.05846  -0.06829
  57        2S         -0.09634   0.00106  -0.10780   0.14254  -0.69114
                          21        22        23        24        25
                           V         V         V         V         V
     Eigenvalues --     0.28429   0.30516   0.30881   0.33155   0.35207
   1 1   C  1S          0.01023   0.10616   0.01939  -0.00345  -0.07637
   2        2S          0.01800  -0.06920  -0.00751   0.03629   0.06231
   3        2PX        -0.03137  -0.10273   0.01316  -0.08411   0.04884
   4        2PY        -0.02016   0.04164   0.14329  -0.02297   0.01679
   5        2PZ        -0.00004  -0.00001   0.00001  -0.00002   0.00002
   6        3S         -0.26769  -1.04012  -0.23797  -0.55844   0.46254
   7        3PX        -0.32542  -0.24275  -0.04534  -0.29788   0.51962
   8        3PY        -0.16051   0.46161   0.75770  -0.72204  -0.50458
   9        3PZ        -0.00009  -0.00001  -0.00002  -0.00002   0.00010
  10 2   C  1S          0.06062   0.00646   0.02957   0.12059   0.00055
  11        2S         -0.02704   0.01679   0.01598  -0.09050  -0.02752
  12        2PX        -0.00778   0.02054   0.14590   0.07911   0.18967
  13        2PY        -0.04711  -0.06574   0.03090  -0.09584   0.08116
  14        2PZ         0.00004   0.00000  -0.00000   0.00001  -0.00002
  15        3S         -0.69098  -0.38871  -0.85992  -1.00060   0.35284
  16        3PX         0.08143  -0.20983   0.28693   0.94240   1.32759
  17        3PY        -0.18016  -0.29747   0.19372  -0.45788   0.31185
  18        3PZ         0.00010  -0.00001  -0.00001   0.00007  -0.00002
  19 3   C  1S         -0.03041  -0.01895   0.08931  -0.07596   0.02019
  20        2S          0.03634  -0.00326  -0.04561   0.06182   0.02707
  21        2PX        -0.03678  -0.00695  -0.00264  -0.14944   0.11348
  22        2PY        -0.03509  -0.10225  -0.09167   0.01319  -0.00278
  23        2PZ        -0.00004   0.00001   0.00000  -0.00003   0.00004
  24        3S          0.10566   0.42653  -1.00566   0.38673  -0.72576
  25        3PX        -0.32600   0.03513   0.01688  -0.57850   0.56984
  26        3PY         0.01239  -0.63391  -0.59730   0.70956   0.45968
  27        3PZ        -0.00011  -0.00002   0.00001  -0.00008   0.00015
  28 4   C  1S         -0.02650  -0.02117   0.00785  -0.01844   0.09492
  29        2S          0.02687   0.03749   0.01749  -0.03798  -0.04632
  30        2PX        -0.05168  -0.06989  -0.03651  -0.00844   0.07457
  31        2PY        -0.04402  -0.12539   0.06605  -0.04826   0.09647
  32        2PZ         0.00004   0.00001  -0.00001   0.00003  -0.00006
  33        3S          0.41718  -0.20461  -0.41788   0.83145  -0.91786
  34        3PX        -0.39843   0.19810   0.14579  -0.67683  -0.10527
  35        3PY        -0.12214  -0.39834   0.17782  -0.12693   0.48470
  36        3PZ         0.00011   0.00001  -0.00002   0.00014  -0.00019
  37 5   H  1S          0.02198   0.02183   0.05573  -0.02772   0.01074
  38        2S         -0.03439   1.07768   1.01204  -0.47090  -0.72908
  39 6   H  1S          0.01586  -0.00016   0.03733   0.01325   0.03452
  40        2S          0.45076   0.02582   0.81544   1.55403   1.26747
  41 7   H  1S          0.02550   0.01718   0.05353  -0.01990  -0.02669
  42        2S         -0.06214   0.50939   1.22754  -0.94148  -0.10807
  43 8   C  1S         -0.14688   0.02793  -0.01263   0.05070  -0.03732
  44        2S          0.04360  -0.00149   0.01549  -0.01651   0.00345
  45        2PX         0.10198  -0.06075  -0.03731  -0.07838  -0.05433
  46        2PY        -0.03160  -0.17350   0.11720   0.05423  -0.15590
  47        2PZ         0.00002  -0.00000   0.00001  -0.00002   0.00006
  48        3S          2.02400  -0.49899   0.03823  -0.51861   0.56745
  49        3PX         0.48554  -0.19252  -0.08060  -0.36426  -0.40913
  50        3PY        -0.11614  -0.80617   0.51922   0.28458  -0.76478
  51        3PZ         0.00006  -0.00001   0.00003  -0.00013   0.00031
  52 9   H  1S         -0.01658  -0.03710   0.02832   0.00229   0.00170
  53        2S         -1.01722  -0.31789   0.34437   0.51701  -0.49456
  54 10  H  1S          0.00937   0.08588  -0.04786   0.01460   0.00528
  55        2S         -0.82944   1.27751  -0.63224   0.17274   0.73180
  56 11  H  1S         -0.01659  -0.03707   0.02831   0.00229   0.00170
  57        2S         -1.01736  -0.31749   0.34408   0.51714  -0.49479
                          26        27        28        29        30
                           V         V         V         V         V
     Eigenvalues --     0.36565   0.37070   0.45418   0.51508   0.55736
   1 1   C  1S         -0.04405  -0.00002  -0.03808   0.04828  -0.05856
   2        2S          0.01096  -0.00000  -0.01188  -0.03169   0.00893
   3        2PX        -0.08877  -0.00011  -0.13962   0.07615   0.14028
   4        2PY        -0.20654  -0.00022   0.09101  -0.08704   0.12959
   5        2PZ        -0.00014   0.14345  -0.00000   0.00000  -0.00001
   6        3S          0.91153   0.00065   1.08179  -0.68402   1.02313
   7        3PX        -0.47566  -0.00060  -0.99570   1.06447   0.92814
   8        3PY        -0.90213  -0.00093   1.06227  -0.41905   0.97453
   9        3PZ        -0.00036   0.36917  -0.00005   0.00004  -0.00004
  10 2   C  1S          0.03909   0.00005   0.02670  -0.04589   0.04355
  11        2S         -0.01746  -0.00003   0.00709   0.01613  -0.00538
  12        2PX        -0.05832  -0.00010   0.04769   0.13553  -0.09128
  13        2PY         0.05177   0.00001   0.12306  -0.09779  -0.20364
  14        2PZ         0.00009  -0.08949  -0.00000   0.00001  -0.00001
  15        3S         -0.49316  -0.00060  -1.03696   0.59664  -0.74877
  16        3PX        -0.32361  -0.00048  -0.19737   0.81828  -0.90592
  17        3PY         0.16574  -0.00003   1.22323  -1.12824  -0.61841
  18        3PZ         0.00028  -0.30233  -0.00006   0.00004  -0.00003
  19 3   C  1S          0.05498   0.00003   0.07229  -0.02162   0.03008
  20        2S         -0.02924  -0.00003  -0.04653  -0.02700   0.00477
  21        2PX        -0.05056  -0.00010   0.04140  -0.07879  -0.15887
  22        2PY        -0.20085  -0.00021   0.16401  -0.05611   0.01155
  23        2PZ        -0.00010   0.10632   0.00001  -0.00000   0.00001
  24        3S         -0.85556  -0.00053  -0.62699   1.02968  -0.81079
  25        3PX        -0.32190  -0.00048  -0.04978  -0.00286  -1.78756
  26        3PY        -1.01083  -0.00106   0.68094  -1.15437   0.35793
  27        3PZ        -0.00043   0.43604   0.00004  -0.00003   0.00002
  28 4   C  1S         -0.05635  -0.00008  -0.11771  -0.03779  -0.00903
  29        2S          0.02553   0.00004   0.04218   0.02570   0.01061
  30        2PX        -0.05089  -0.00007   0.12426   0.27961  -0.00817
  31        2PY         0.02329  -0.00002  -0.02128   0.03733   0.32853
  32        2PZ         0.00019  -0.18464  -0.00000  -0.00000  -0.00001
  33        3S          0.62325   0.00088   1.96531   0.53357   0.46309
  34        3PX        -0.10363  -0.00015   0.97467   2.49343  -0.16579
  35        3PY         0.01622  -0.00018   0.16681  -0.20636   2.06839
  36        3PZ         0.00071  -0.69992  -0.00003  -0.00005  -0.00002
  37 5   H  1S          0.00112  -0.00001   0.00364  -0.01128  -0.02992
  38        2S         -1.41615  -0.00133   0.63136  -0.20775   0.48439
  39 6   H  1S         -0.02688  -0.00003  -0.04649  -0.04063   0.01043
  40        2S         -0.13659  -0.00025   0.15162   0.66252  -0.46566
  41 7   H  1S         -0.01349  -0.00002  -0.02851  -0.01940  -0.03650
  42        2S          1.51188   0.00141  -0.44488   0.66480  -0.10880
  43 8   C  1S          0.02870   0.00004   0.07650   0.07409  -0.00120
  44        2S         -0.00115  -0.00000   0.00593   0.02209   0.00138
  45        2PX        -0.02232  -0.00001   0.08979   0.09858  -0.03754
  46        2PY        -0.05436  -0.00001  -0.10424   0.04708  -0.08255
  47        2PZ        -0.00027   0.28892   0.00001  -0.00002   0.00002
  48        3S         -0.39880  -0.00054  -1.35134  -1.81822   0.07152
  49        3PX         0.01844   0.00011   1.25618   1.82881  -0.21763
  50        3PY        -0.19592   0.00003  -0.38561  -0.13650  -0.93822
  51        3PZ        -0.00132   1.35642   0.00003  -0.00007   0.00004
  52 9   H  1S          0.00223   0.01117  -0.02154  -0.08285   0.02395
  53        2S          0.02327   1.24108  -0.15280  -0.07729  -0.29371
  54 10  H  1S          0.00195   0.00001  -0.06787  -0.04393  -0.04015
  55        2S          0.39848   0.00051   0.28500  -0.21446   0.72103
  56 11  H  1S          0.00225  -0.01118  -0.02155  -0.08284   0.02394
  57        2S          0.02575  -1.24102  -0.15281  -0.07723  -0.29356
                          31        32        33        34        35
                           V         V         V         V         V
     Eigenvalues --     0.78551   0.86797   0.92029   0.95132   0.97257
   1 1   C  1S         -0.13159  -0.01420  -0.00311  -0.02392  -0.00000
   2        2S         -0.01268  -0.01405   0.00521  -0.25726  -0.00001
   3        2PX         0.09686  -0.50805   0.41390   0.18656   0.00001
   4        2PY         0.12459   0.07571   0.01768   0.17624   0.00001
   5        2PZ         0.00001  -0.00000   0.00001   0.00001  -0.23687
   6        3S          3.65593   0.79975  -0.68384   0.55238  -0.00006
   7        3PX        -0.73984   0.42737  -0.33680  -0.25370  -0.00003
   8        3PY         3.05738   0.27082  -0.38363  -0.10976  -0.00006
   9        3PZ        -0.00017  -0.00001   0.00001  -0.00002   0.17713
  10 2   C  1S          0.13142   0.02463  -0.04521   0.01047   0.00000
  11        2S         -0.00935   0.03718  -0.00578  -0.21559  -0.00001
  12        2PX        -0.14778   0.04556   0.05987   0.17237  -0.00002
  13        2PY         0.03611  -0.30074   0.36555   0.38032   0.00004
  14        2PZ         0.00001   0.00001  -0.00002   0.00000  -0.09554
  15        3S         -3.79212  -0.42599   0.23107  -0.11287   0.00006
  16        3PX        -2.90080  -0.52693   0.36769  -0.63392   0.00008
  17        3PY         0.67610   0.48895  -0.46875  -0.27361  -0.00001
  18        3PZ        -0.00017  -0.00004   0.00004  -0.00002  -0.04712
  19 3   C  1S         -0.14266  -0.01332   0.03356   0.01061   0.00000
  20        2S         -0.01576   0.07881   0.12415  -0.17259   0.00001
  21        2PX        -0.03948   0.44558   0.46781   0.02520   0.00001
  22        2PY        -0.13653  -0.08672   0.12871  -0.04090  -0.00000
  23        2PZ         0.00000   0.00001   0.00001   0.00000  -0.46729
  24        3S          4.02519   0.37446  -0.44143   0.70076  -0.00007
  25        3PX         0.73914  -0.38095  -0.51900  -0.03692  -0.00001
  26        3PY        -3.25474  -0.24151   0.19876  -0.14625   0.00007
  27        3PZ        -0.00010  -0.00000  -0.00000  -0.00001   0.43588
  28 4   C  1S          0.13075   0.02067   0.01910   0.00598   0.00000
  29        2S         -0.02204   0.04570   0.10155  -0.17704   0.00001
  30        2PX         0.17283  -0.06195   0.06275  -0.02634  -0.00001
  31        2PY        -0.05247   0.26555   0.30003   0.19203   0.00003
  32        2PZ        -0.00000  -0.00000   0.00003   0.00000  -0.59822
  33        3S         -3.33926  -0.38541   0.80591  -0.15769   0.00009
  34        3PX         3.63160   0.61560  -0.40689   0.30437  -0.00006
  35        3PY        -0.97342  -0.14531  -0.19718  -0.22274  -0.00002
  36        3PZ        -0.00011  -0.00002   0.00002  -0.00001   0.16343
  37 5   H  1S         -0.21976  -0.12127  -0.06129  -0.62711  -0.00004
  38        2S          1.27360   0.07693  -0.06672   0.29906   0.00000
  39 6   H  1S          0.18519  -0.00645  -0.19394  -0.44755   0.00000
  40        2S         -1.13811  -0.22480   0.29988   0.01428   0.00002
  41 7   H  1S         -0.22044  -0.05354   0.37957  -0.22025   0.00002
  42        2S          1.32665   0.11540  -0.31963   0.14503  -0.00004
  43 8   C  1S          0.00031  -0.00379  -0.00924   0.00646  -0.00000
  44        2S          0.11786   0.01172   0.10844  -0.04861   0.00001
  45        2PX        -0.30267   0.04626  -0.58689   0.50928  -0.00007
  46        2PY         0.00104   0.42331   0.10524   0.01861   0.00000
  47        2PZ         0.00001  -0.00001   0.00007  -0.00003  -0.51584
  48        3S         -1.53926  -0.24188  -0.01926  -0.15413   0.00002
  49        3PX         1.23585   0.07969   0.55066  -0.50703   0.00007
  50        3PY         0.13748  -0.60058  -0.16131  -0.03792  -0.00000
  51        3PZ        -0.00004   0.00000  -0.00008   0.00002   0.94105
  52 9   H  1S         -0.04064  -0.18823  -0.07796   0.02906   0.37744
  53        2S          0.02469   0.01462  -0.01015   0.01015   0.07268
  54 10  H  1S         -0.07974   0.35438   0.06631   0.08948   0.00009
  55        2S         -0.14846  -0.08246   0.03347   0.03783   0.00002
  56 11  H  1S         -0.04061  -0.18809  -0.07787   0.02909  -0.37755
  57        2S          0.02466   0.01460  -0.01016   0.01015  -0.07271
                          36        37        38        39        40
                           V         V         V         V         V
     Eigenvalues --     1.00156   1.01775   1.06186   1.10513   1.16134
   1 1   C  1S         -0.04802   0.00000   0.00000  -0.00000  -0.00831
   2        2S          0.02880   0.00000  -0.00001   0.00001  -0.15309
   3        2PX        -0.32889   0.00002   0.00002  -0.00000  -0.31313
   4        2PY         0.03264   0.00001  -0.00002   0.00002  -0.14970
   5        2PZ         0.00004   0.63848  -0.62412   0.50526  -0.00015
   6        3S          0.08346   0.00001   0.00001  -0.00002  -0.12710
   7        3PX         0.16114  -0.00000  -0.00001   0.00001   0.62211
   8        3PY         0.18317  -0.00000   0.00001  -0.00003   0.02105
   9        3PZ        -0.00005  -0.47602   0.69069  -0.64057   0.00035
  10 2   C  1S          0.04242  -0.00000  -0.00000  -0.00000  -0.02593
  11        2S          0.13779  -0.00001  -0.00001  -0.00000  -0.10225
  12        2PX        -0.10254  -0.00002  -0.00001   0.00000  -0.27516
  13        2PY         0.49564  -0.00002   0.00002  -0.00001   0.13324
  14        2PZ         0.00004   0.80337   0.30339  -0.67566   0.00005
  15        3S         -0.43830   0.00000   0.00000   0.00004   0.88011
  16        3PX         0.01625   0.00001   0.00000   0.00004   1.18839
  17        3PY        -0.34597   0.00000  -0.00004   0.00002  -0.20648
  18        3PZ        -0.00003  -0.68976  -0.27890   0.95378  -0.00013
  19 3   C  1S          0.02391   0.00000   0.00000  -0.00000   0.04903
  20        2S          0.14544  -0.00001  -0.00000   0.00001  -0.00895
  21        2PX        -0.40084   0.00003  -0.00000  -0.00001  -0.20889
  22        2PY         0.15405  -0.00000   0.00000  -0.00002  -0.20529
  23        2PZ         0.00003   0.10767   0.81212   0.50403  -0.00011
  24        3S         -0.06330   0.00003  -0.00003  -0.00005  -0.31757
  25        3PX         0.23471  -0.00004  -0.00002   0.00002   0.14053
  26        3PY        -0.46512   0.00001  -0.00000   0.00007   0.98170
  27        3PZ        -0.00002   0.08080  -0.77318  -0.62110   0.00032
  28 4   C  1S         -0.03477   0.00000  -0.00000  -0.00000   0.02291
  29        2S          0.06134   0.00001  -0.00000   0.00002  -0.08805
  30        2PX         0.11052  -0.00002  -0.00001  -0.00001  -0.74254
  31        2PY         0.35454  -0.00000  -0.00003   0.00000  -0.00675
  32        2PZ         0.00001  -0.03168  -0.16719   0.13331   0.00042
  33        3S         -0.44201   0.00002   0.00002   0.00001   0.54680
  34        3PX        -0.10113   0.00004  -0.00002  -0.00001   1.10149
  35        3PY        -0.07807  -0.00000   0.00007   0.00001   0.25677
  36        3PZ         0.00000   0.02325   0.09300  -0.13804  -0.00072
  37 5   H  1S         -0.16931   0.00002  -0.00001  -0.00001  -0.34181
  38        2S          0.18249  -0.00001  -0.00000   0.00000   0.26324
  39 6   H  1S          0.55416  -0.00005  -0.00002  -0.00000  -0.22176
  40        2S         -0.28452   0.00003   0.00001   0.00003   0.71215
  41 7   H  1S          0.52552  -0.00001   0.00000   0.00000   0.12399
  42        2S         -0.08148  -0.00000   0.00000  -0.00003  -0.62621
  43 8   C  1S          0.01185  -0.00000  -0.00000  -0.00000  -0.06965
  44        2S         -0.06384   0.00001   0.00000   0.00001   0.07124
  45        2PX         0.20937  -0.00004  -0.00002  -0.00003  -0.33556
  46        2PY         0.08898  -0.00004   0.00008   0.00001   0.04422
  47        2PZ         0.00000  -0.27311  -0.08162  -0.37933  -0.00024
  48        3S          0.12220  -0.00002   0.00002   0.00001  -0.33225
  49        3PX        -0.28022   0.00006   0.00001   0.00004   0.82213
  50        3PY        -0.26190   0.00004  -0.00009  -0.00001  -0.07907
  51        3PZ         0.00000   0.43558   0.27856   0.73941   0.00054
  52 9   H  1S         -0.04691   0.15776   0.18738   0.25038  -0.23750
  53        2S         -0.01668   0.00995  -0.00498   0.05070  -0.08522
  54 10  H  1S          0.13858   0.00003   0.00002   0.00005  -0.49277
  55        2S          0.09261  -0.00001   0.00003   0.00001   0.09903
  56 11  H  1S         -0.04688  -0.15779  -0.18739  -0.25044  -0.23753
  57        2S         -0.01663  -0.00996   0.00494  -0.05073  -0.08556
                          41        42        43        44        45
                           V         V         V         V         V
     Eigenvalues --     1.17642   1.18133   1.24203   1.27865   1.31497
   1 1   C  1S         -0.00000   0.00968   0.00063  -0.04506  -0.04171
   2        2S         -0.00004   0.04032  -0.05158  -0.02227   0.06127
   3        2PX        -0.00018  -0.14019   0.44171  -0.16773   0.05068
   4        2PY        -0.00007   0.03146  -0.00600  -0.62537  -0.88605
   5        2PZ         0.32910  -0.00010   0.00002   0.00004   0.00001
   6        3S          0.00012  -0.29348  -0.86062   0.24426   1.24999
   7        3PX         0.00030  -0.25411  -1.09700   0.42715  -0.02006
   8        3PY         0.00019  -0.24584  -0.68083   1.63889   3.13779
   9        3PZ        -0.74888   0.00018  -0.00003  -0.00009   0.00008
  10 2   C  1S         -0.00001   0.00536  -0.03542  -0.00915  -0.00615
  11        2S          0.00001   0.08749  -0.05870  -0.04702  -0.09571
  12        2PX        -0.00003   0.12127  -0.48664  -0.11190   0.09720
  13        2PY         0.00005  -0.24501  -0.47756   0.03637  -0.00152
  14        2PZ        -0.12273   0.00002  -0.00001  -0.00000   0.00002
  15        3S          0.00009  -0.13867   1.03518  -0.32753  -1.77363
  16        3PX         0.00016  -0.28367   1.85565   0.01842  -1.45235
  17        3PY        -0.00009   0.40553   1.24002  -0.12283   0.06879
  18        3PZ         0.36482  -0.00007   0.00008   0.00001  -0.00021
  19 3   C  1S          0.00002  -0.00962   0.02967   0.00919   0.00305
  20        2S          0.00002   0.11673   0.06452   0.06189  -0.11547
  21        2PX        -0.00003   0.23783  -0.46470   0.22393   0.01989
  22        2PY        -0.00007  -0.13358  -0.43485  -0.44019   0.28920
  23        2PZ         0.23959   0.00002   0.00002  -0.00001  -0.00024
  24        3S          0.00026   1.04531  -1.20407  -0.15476   1.02536
  25        3PX         0.00004   0.33190   1.28332  -0.38293  -0.13740
  26        3PY         0.00007  -0.45086   1.76427   0.98119  -1.18328
  27        3PZ        -0.68530   0.00002  -0.00004  -0.00001   0.00048
  28 4   C  1S          0.00001   0.01197  -0.00483   0.00096   0.00646
  29        2S         -0.00004  -0.00666   0.02231   0.21725  -0.08561
  30        2PX        -0.00039   0.04149   0.16504   0.28110  -0.08900
  31        2PY         0.00002   0.43983   0.37376  -0.20981  -0.05968
  32        2PZ        -0.88316   0.00011  -0.00008  -0.00004   0.00050
  33        3S         -0.00002  -0.34865   0.85340  -0.36684  -1.45294
  34        3PX         0.00087   0.40040  -0.93788   0.04953   1.51415
  35        3PY        -0.00008  -1.84860  -0.95186   0.58562   0.38210
  36        3PZ         1.59552  -0.00023   0.00020   0.00006  -0.00085
  37 5   H  1S         -0.00014  -0.16922  -0.10915  -0.42343  -0.09473
  38        2S          0.00019   0.04561  -0.08582   1.24094   1.65831
  39 6   H  1S         -0.00010   0.06599  -0.23028  -0.08641  -0.12609
  40        2S          0.00017  -0.19604   0.96676   0.16164  -0.37797
  41 7   H  1S          0.00010   0.25552   0.22023   0.25573  -0.01581
  42        2S         -0.00017  -0.07622  -0.89429  -0.74282   0.47103
  43 8   C  1S         -0.00003   0.00288   0.01167   0.05729  -0.01049
  44        2S          0.00004  -0.00183  -0.01012  -0.09063   0.06494
  45        2PX        -0.00009   0.06640  -0.00784  -0.01810   0.10182
  46        2PY        -0.00010  -0.86470   0.03595   0.23637  -0.35876
  47        2PZ         0.55435  -0.00008   0.00005  -0.00004   0.00135
  48        3S         -0.00032  -0.30203   0.28012   0.03810  -0.66112
  49        3PX         0.00040   0.20584  -0.10220  -0.02294   0.10273
  50        3PY         0.00023   2.05300   0.03680  -0.29094   0.10340
  51        3PZ        -1.35289   0.00019  -0.00016   0.00001  -0.00124
  52 9   H  1S         -0.07201   0.08798  -0.09380   0.53344  -0.37254
  53        2S         -0.40747   0.39844   0.10041  -0.42469   0.40878
  54 10  H  1S         -0.00031  -0.24097   0.34520  -0.08939   0.54614
  55        2S         -0.00011  -0.69577  -0.28721   0.32702  -0.56215
  56 11  H  1S          0.07181   0.08787  -0.09365   0.53341  -0.37534
  57        2S          0.40761   0.39807   0.10041  -0.42463   0.41262
                          46        47        48        49        50
                           V         V         V         V         V
     Eigenvalues --     1.31719   1.33463   1.35594   1.36478   1.51475
   1 1   C  1S         -0.00007  -0.00778  -0.02073   0.00081   0.04322
   2        2S          0.00014  -0.07338   0.07747   0.10160  -0.29906
   3        2PX         0.00011  -0.36061   0.00803  -0.12186   0.30454
   4        2PY        -0.00162   0.22452   0.11612   0.25748  -0.22037
   5        2PZ        -0.00789  -0.00001  -0.00001  -0.00002   0.00003
   6        3S          0.00255  -1.15864  -1.11400  -0.39141  -1.90817
   7        3PX        -0.00007   0.81699   0.31154   0.62538  -0.44185
   8        3PY         0.00589  -1.25692  -0.53660  -0.66192  -1.96033
   9        3PZ        -0.08606   0.00002   0.00002   0.00007   0.00005
  10 2   C  1S         -0.00001  -0.02282   0.00192   0.01354  -0.04262
  11        2S         -0.00017   0.00357   0.05481   0.03046   0.36141
  12        2PX         0.00036  -0.83827  -0.43624   0.35998  -0.03571
  13        2PY        -0.00001   0.23453   0.26846   0.27904  -0.13713
  14        2PZ        -0.01321  -0.00004  -0.00001   0.00001   0.00001
  15        3S         -0.00334   0.66265   0.45152   1.21121   1.09007
  16        3PX        -0.00317   2.19557   1.52267   0.02774   2.79220
  17        3PY         0.00020  -0.78248  -0.78318  -0.60137  -0.17424
  18        3PZ         0.07799   0.00012   0.00007   0.00000   0.00012
  19 3   C  1S          0.00001  -0.01861   0.00096   0.03566   0.03807
  20        2S         -0.00021  -0.08334  -0.07871  -0.16054  -0.35756
  21        2PX        -0.00007   0.10987   0.44795  -0.09204   0.17749
  22        2PY         0.00058   0.36523  -0.52269  -0.66439   0.10056
  23        2PZ         0.13104   0.00003   0.00003  -0.00000   0.00002
  24        3S          0.00210  -0.60845  -1.17129  -0.40736  -1.58624
  25        3PX        -0.00014  -0.25673  -1.10666  -0.42662  -0.44554
  26        3PY        -0.00239  -0.18545   1.94846   2.15971   2.17050
  27        3PZ        -0.28186  -0.00007  -0.00004   0.00005  -0.00000
  28 4   C  1S          0.00000  -0.00437   0.02810  -0.00445  -0.02989
  29        2S         -0.00007  -0.00861  -0.13597   0.09572  -0.20721
  30        2PX        -0.00027   0.09800   0.44045  -0.14293  -0.05426
  31        2PY        -0.00009  -0.03496  -0.30139  -0.24279   0.12406
  32        2PZ        -0.25715  -0.00004  -0.00006   0.00003  -0.00003
  33        3S         -0.00283   0.28415   1.04555   1.30228   2.47411
  34        3PX         0.00300  -0.09590  -1.67768  -0.69919  -1.73548
  35        3PY         0.00067   0.21284   1.02957   0.86559  -0.06228
  36        3PZ         0.40011   0.00012   0.00013  -0.00002   0.00016
  37 5   H  1S         -0.00015  -0.05320   0.16472   0.00993  -0.52928
  38        2S          0.00304  -0.46152  -0.19826  -0.32503  -0.41016
  39 6   H  1S         -0.00022  -0.31669   0.11562   0.22716   0.87743
  40        2S         -0.00098   1.44360   0.71564  -0.37868   0.81279
  41 7   H  1S         -0.00004  -0.37972   0.11244  -0.03063  -0.55490
  42        2S          0.00095   0.54141  -1.01419  -1.18946  -0.59242
  43 8   C  1S         -0.00001   0.03790  -0.04528   0.02889  -0.01080
  44        2S          0.00009  -0.08179   0.18838  -0.15963   0.04760
  45        2PX         0.00008  -0.20569   0.40988  -0.35949  -0.11038
  46        2PY        -0.00072  -0.30115  -0.09263  -0.30700   0.03363
  47        2PZ        -0.72221   0.00002  -0.00013   0.00013   0.00001
  48        3S         -0.00123   0.11919   0.35498   0.53366   0.50097
  49        3PX         0.00034   0.25653  -0.90400   0.33728  -0.13467
  50        3PY         0.00024   0.42172  -0.10292   0.14748   0.04612
  51        3PZ         0.69660  -0.00009   0.00015  -0.00017  -0.00006
  52 9   H  1S         -0.78770   0.17677  -0.43945  -0.02233   0.00422
  53        2S          1.08651  -0.02118   0.45397   0.02935  -0.02453
  54 10  H  1S          0.00101   0.42391  -0.24773   0.72234  -0.04708
  55        2S         -0.00101  -0.60553   0.37843  -0.91229   0.02957
  56 11  H  1S          0.78652   0.17690  -0.43914  -0.02238   0.00426
  57        2S         -1.08525  -0.02131   0.45354   0.02951  -0.02454
                          51        52        53        54        55
                           V         V         V         V         V
     Eigenvalues --     1.57190   1.59663   1.69990   1.94557   2.07804
   1 1   C  1S         -0.03246  -0.01793  -0.00702  -0.02561   0.01158
   2        2S          0.79998   0.16785  -0.23324  -0.91701   1.07097
   3        2PX         0.18336   0.26016   0.22767   0.17461   0.15207
   4        2PY        -0.14303   0.22432   0.02246  -0.08602   0.20302
   5        2PZ        -0.00002  -0.00001   0.00000   0.00000  -0.00000
   6        3S         -0.61100   0.99813   1.57431   1.64354  -2.46257
   7        3PX        -0.59096   0.10462  -0.51103   0.33459   0.34081
   8        3PY         1.81372  -0.80396   1.38577   1.28681  -1.63815
   9        3PZ         0.00001   0.00003  -0.00007  -0.00004   0.00006
  10 2   C  1S         -0.02049  -0.02276   0.01837  -0.02059  -0.00252
  11        2S          0.63512   0.61783  -0.08330  -1.06646  -0.83463
  12        2PX        -0.10765  -0.05451  -0.19375  -0.15684  -0.18896
  13        2PY         0.32005  -0.21943  -0.04356   0.11702  -0.17847
  14        2PZ         0.00000   0.00001  -0.00001  -0.00000  -0.00000
  15        3S         -1.59087  -0.87516  -1.78982   1.37512   1.94342
  16        3PX         0.12567   0.42917  -0.20977   1.32394   1.37295
  17        3PY        -0.34080   0.23856   0.07548   0.13286  -0.56623
  18        3PZ        -0.00006  -0.00004  -0.00004   0.00002   0.00005
  19 3   C  1S         -0.01545  -0.02622  -0.00711   0.02209  -0.01079
  20        2S          0.25446   0.78424  -0.20209   0.75485  -1.10615
  21        2PX         0.04639   0.14568   0.30423   0.17900   0.15743
  22        2PY        -0.19873   0.13743  -0.02106  -0.09499   0.20539
  23        2PZ        -0.00001  -0.00002   0.00000   0.00001   0.00000
  24        3S          1.70142  -0.97249   1.82987  -0.71432   2.71786
  25        3PX         0.13699  -0.44526  -0.38212   0.28328   0.64378
  26        3PY         0.20242  -1.44878  -1.76300   0.65891  -1.75576
  27        3PZ        -0.00000   0.00006  -0.00004  -0.00001  -0.00003
  28 4   C  1S          0.00149  -0.00193   0.03943   0.03244   0.00629
  29        2S          0.31235   0.39995  -0.96466   0.97654   0.77486
  30        2PX        -0.42344  -0.30501  -0.43707  -0.29091  -0.24355
  31        2PY         0.42381  -0.58166  -0.05534   0.08586  -0.07594
  32        2PZ         0.00002   0.00003  -0.00000  -0.00000   0.00000
  33        3S         -0.47349  -0.42050   0.34912  -1.80875  -2.05673
  34        3PX         2.37770   1.50047   3.68586   2.24982   1.58359
  35        3PY        -1.39838   1.24928  -0.23434   0.18108  -1.07523
  36        3PZ        -0.00010  -0.00011  -0.00008  -0.00001  -0.00001
  37 5   H  1S          0.38128  -0.53793   0.33439   0.28783  -0.22672
  38        2S          0.97634  -0.25917   0.24786   0.14442  -0.25463
  39 6   H  1S         -0.06329   0.01860   0.18794   0.34387   0.20542
  40        2S          0.51193   0.46439   0.08013   0.17833   0.24774
  41 7   H  1S         -0.48032   0.31512   0.43777  -0.19792   0.23675
  42        2S         -0.06069   0.85229   0.33664  -0.04921   0.27226
  43 8   C  1S          0.02400   0.01481   0.04926   0.01359   0.00275
  44        2S         -0.07082  -0.03443  -0.80170  -0.06586  -0.12893
  45        2PX         0.19964   0.17153   0.12353   0.14399   0.08707
  46        2PY         0.06248  -0.05841   0.05652  -0.06197  -0.00699
  47        2PZ        -0.00002  -0.00001  -0.00004   0.00002   0.00002
  48        3S         -1.29970  -0.76223  -0.89927  -0.84500  -0.34826
  49        3PX         0.55706   0.12953   1.27710   0.30262   0.17189
  50        3PY         0.22435  -0.44675  -0.31544  -0.01715   0.26663
  51        3PZ         0.00005   0.00004   0.00007  -0.00007  -0.00006
  52 9   H  1S          0.13826  -0.07067   0.18149  -0.00619   0.01171
  53        2S         -0.05851   0.04788  -0.54687   0.04909   0.02299
  54 10  H  1S         -0.06124   0.21296   0.16492   0.06998  -0.06195
  55        2S          0.00059   0.01337  -0.34638  -0.10085  -0.08955
  56 11  H  1S          0.13819  -0.07065   0.18151  -0.00619   0.01168
  57        2S         -0.05852   0.04787  -0.54697   0.04915   0.02304
                          56        57
                           V         V
     Eigenvalues --     2.27264   2.58468
   1 1   C  1S          0.01445  -0.09103
   2        2S          0.16753  -1.21567
   3        2PX        -0.09377   0.00111
   4        2PY        -0.04652  -0.03034
   5        2PZ         0.00001  -0.00001
   6        3S         -2.05066   8.07086
   7        3PX         0.19409  -0.49828
   8        3PY        -1.73233   5.19183
   9        3PZ         0.00006  -0.00025
  10 2   C  1S         -0.01348   0.09249
  11        2S         -0.00884   1.22576
  12        2PX         0.10307   0.02134
  13        2PY         0.00204   0.00470
  14        2PZ         0.00001  -0.00000
  15        3S          1.94118  -8.20553
  16        3PX         0.51735  -5.07495
  17        3PY        -0.01351   0.67712
  18        3PZ         0.00008  -0.00028
  19 3   C  1S          0.00944  -0.09293
  20        2S          0.24673  -1.26427
  21        2PX        -0.11323   0.02338
  22        2PY         0.01169   0.03527
  23        2PZ         0.00001  -0.00001
  24        3S         -2.92786   8.33429
  25        3PX        -0.01263   0.48424
  26        3PY         2.30358  -5.28244
  27        3PZ         0.00004  -0.00013
  28 4   C  1S         -0.00141   0.09671
  29        2S          0.26909   1.17429
  30        2PX         0.40494  -0.12406
  31        2PY         0.02267   0.00854
  32        2PZ        -0.00001   0.00002
  33        3S         -0.25701  -8.09243
  34        3PX        -5.53618   5.46356
  35        3PY         0.60106  -0.81815
  36        3PZ         0.00015  -0.00026
  37 5   H  1S         -0.22787   0.34633
  38        2S         -0.42115   1.03667
  39 6   H  1S         -0.08653  -0.31128
  40        2S         -0.04324  -0.98238
  41 7   H  1S         -0.29390   0.34022
  42        2S         -0.53759   1.04377
  43 8   C  1S         -0.09715  -0.00476
  44        2S         -1.97970  -0.20689
  45        2PX        -0.15681   0.12942
  46        2PY         0.00431  -0.02145
  47        2PZ         0.00001  -0.00001
  48        3S          6.85752  -1.15056
  49        3PX        -1.82725   0.45243
  50        3PY         0.16091   0.05677
  51        3PZ        -0.00000   0.00007
  52 9   H  1S         -0.40519  -0.02726
  53        2S         -0.49242   0.01527
  54 10  H  1S         -0.38721  -0.02015
  55        2S         -0.51707  -0.08911
  56 11  H  1S         -0.40518  -0.02731
  57        2S         -0.49240   0.01528
     Density Matrix:
                           1         2         3         4         5
   1 1   C  1S          2.03941
   2        2S          0.10303   0.11878
   3        2PX         0.00474  -0.01163   0.28273
   4        2PY         0.00001   0.00484  -0.02021   0.30700
   5        2PZ        -0.00000  -0.00000   0.00000  -0.00000   0.22804
   6        3S         -0.41896   0.21905   0.03031  -0.00630   0.00002
   7        3PX        -0.00139   0.00378   0.16856  -0.00279  -0.00000
   8        3PY        -0.08251  -0.00195   0.01113   0.26706   0.00001
   9        3PZ         0.00000   0.00000  -0.00000   0.00000   0.27711
  10 2   C  1S          0.01914  -0.03332   0.06636  -0.04434   0.00001
  11        2S         -0.03319   0.02444  -0.07090   0.04857  -0.00000
  12        2PX        -0.04140   0.04547  -0.10567   0.08352  -0.00002
  13        2PY         0.06876  -0.07230   0.15761  -0.11825   0.00001
  14        2PZ        -0.00001   0.00001  -0.00001   0.00002   0.21948
  15        3S          0.07395   0.03945  -0.19698   0.03888  -0.00003
  16        3PX         0.03091   0.03418  -0.11789   0.02432  -0.00002
  17        3PY        -0.00055  -0.02851   0.10356  -0.07198   0.00001
  18        3PZ        -0.00000   0.00001  -0.00001   0.00002   0.26239
  19 3   C  1S         -0.00910   0.00687   0.00231   0.01811  -0.00000
  20        2S          0.00674  -0.00359  -0.00545  -0.01624  -0.00000
  21        2PX        -0.00060   0.00231  -0.03197  -0.00043  -0.00000
  22        2PY        -0.01812   0.01627   0.00104   0.02696  -0.00000
  23        2PZ        -0.00000  -0.00000   0.00000   0.00000  -0.03094
  24        3S          0.03511  -0.07335  -0.02717  -0.12525   0.00001
  25        3PX        -0.00343   0.00578  -0.03601   0.01749   0.00000
  26        3PY        -0.02490   0.05296   0.02095   0.07546  -0.00002
  27        3PZ         0.00000  -0.00000  -0.00000  -0.00000  -0.08251
  28 4   C  1S          0.00946  -0.01757  -0.05204  -0.02524  -0.00000
  29        2S         -0.01790   0.01132   0.04595   0.02604   0.00000
  30        2PX         0.02773  -0.02868  -0.11068  -0.05992  -0.00000
  31        2PY         0.05189  -0.04729  -0.15821  -0.10198   0.00000
  32        2PZ        -0.00000  -0.00000   0.00001  -0.00000  -0.02631
  33        3S          0.04933   0.02797   0.20371   0.05618  -0.00000
  34        3PX        -0.01193  -0.04004  -0.14593  -0.04777   0.00001
  35        3PY        -0.00062  -0.01265  -0.13866  -0.08114  -0.00000
  36        3PZ         0.00000  -0.00000   0.00001  -0.00000  -0.06297
  37 5   H  1S         -0.07205   0.06770   0.00601  -0.19848   0.00001
  38        2S         -0.02507   0.02884   0.00055  -0.14074   0.00000
  39 6   H  1S          0.00871  -0.01152   0.03508  -0.01013   0.00000
  40        2S          0.01848  -0.00745   0.04327  -0.00895   0.00000
  41 7   H  1S         -0.01143   0.01098   0.00446   0.02208  -0.00000
  42        2S         -0.01204   0.00575   0.00732   0.03252   0.00000
  43 8   C  1S         -0.00291   0.00270   0.01266   0.00306   0.00000
  44        2S          0.00427  -0.00421  -0.01439  -0.00464   0.00000
  45        2PX        -0.00960   0.01012   0.04197   0.01396   0.00000
  46        2PY        -0.00551   0.00380   0.01083   0.00320  -0.00000
  47        2PZ         0.00000   0.00000  -0.00000  -0.00000  -0.00055
  48        3S          0.00747   0.00504  -0.03148  -0.00026  -0.00001
  49        3PX        -0.00742   0.00172   0.03226   0.00993   0.00000
  50        3PY        -0.00300   0.00565   0.03305   0.01630  -0.00001
  51        3PZ         0.00000   0.00000  -0.00000  -0.00000  -0.01603
  52 9   H  1S          0.00364  -0.00244  -0.00912  -0.00335  -0.00693
  53        2S          0.00328  -0.00129  -0.00425  -0.00560  -0.02919
  54 10  H  1S         -0.00874   0.00639   0.02405   0.01095  -0.00000
  55        2S         -0.01142   0.01009   0.04552   0.01888  -0.00000
  56 11  H  1S          0.00363  -0.00243  -0.00911  -0.00335   0.00694
  57        2S          0.00328  -0.00128  -0.00424  -0.00559   0.02919
                           6         7         8         9        10
   6        3S          0.67999
   7        3PX         0.04229   0.10987
   8        3PY         0.05578   0.01326   0.26646
   9        3PZ         0.00002  -0.00000   0.00001   0.34600
  10 2   C  1S          0.07665   0.00075   0.03237   0.00000   2.03956
  11        2S          0.03414  -0.02765   0.03400  -0.00000   0.10129
  12        2PX         0.02466  -0.06894   0.01769  -0.00002  -0.00071
  13        2PY        -0.20708   0.09309  -0.12864   0.00001   0.00435
  14        2PZ         0.00003  -0.00001   0.00002   0.26484   0.00000
  15        3S         -0.04866  -0.06964  -0.01812  -0.00003  -0.41843
  16        3PX        -0.02098  -0.07152  -0.03750  -0.00002  -0.08311
  17        3PY        -0.07336   0.06472  -0.07276   0.00001   0.00482
  18        3PZ         0.00003  -0.00001   0.00002   0.32433  -0.00000
  19 3   C  1S          0.03012   0.00911   0.02074   0.00000   0.00995
  20        2S         -0.06999  -0.00664  -0.05038  -0.00000  -0.01885
  21        2PX         0.02416  -0.03911   0.01431   0.00000   0.05218
  22        2PY         0.12604   0.01044   0.07233  -0.00000   0.02659
  23        2PZ         0.00001  -0.00000   0.00001  -0.08408  -0.00000
  24        3S         -0.28468  -0.03212  -0.18110   0.00001   0.05117
  25        3PX         0.02952  -0.02604   0.02636   0.00000   0.00423
  26        3PY         0.19193   0.02632   0.10454  -0.00001  -0.01492
  27        3PZ         0.00001  -0.00000   0.00001  -0.15579  -0.00000
  28 4   C  1S          0.04101  -0.00231   0.00465  -0.00000  -0.00885
  29        2S          0.02551   0.01035   0.03151   0.00000   0.00714
  30        2PX        -0.04487  -0.08307  -0.02432  -0.00000  -0.01864
  31        2PY        -0.18835  -0.11313  -0.13358   0.00000  -0.00067
  32        2PZ         0.00001   0.00000   0.00001  -0.07497   0.00000
  33        3S          0.07784   0.07724   0.09300  -0.00000   0.03021
  34        3PX        -0.08094  -0.10226  -0.02435   0.00001  -0.02111
  35        3PY        -0.07435  -0.09419  -0.09978  -0.00000  -0.00467
  36        3PZ         0.00001   0.00000   0.00001  -0.12834  -0.00000
  37 5   H  1S          0.16923   0.00473  -0.17587   0.00000   0.00853
  38        2S          0.06716  -0.00209  -0.12665   0.00000   0.01831
  39 6   H  1S         -0.00249   0.03794   0.01518   0.00000  -0.07170
  40        2S          0.00213   0.03608   0.00983   0.00000  -0.02483
  41 7   H  1S          0.04248   0.00741   0.02689   0.00000   0.00835
  42        2S          0.03860   0.00837   0.04195   0.00001   0.01453
  43 8   C  1S          0.02387   0.01278   0.01569   0.00000   0.00344
  44        2S         -0.01703  -0.01353  -0.00593  -0.00000  -0.00446
  45        2PX         0.01488   0.05349  -0.01636   0.00000   0.01242
  46        2PY         0.03560   0.01237   0.01431  -0.00000  -0.00117
  47        2PZ        -0.00000  -0.00000  -0.00000   0.00450  -0.00000
  48        3S         -0.03566  -0.02063  -0.03324  -0.00001  -0.01360
  49        3PX         0.00545   0.03410  -0.00316   0.00000   0.00856
  50        3PY         0.04198   0.02807   0.02712  -0.00001  -0.00224
  51        3PZ        -0.00001  -0.00000  -0.00001  -0.01174   0.00000
  52 9   H  1S         -0.02538  -0.00471  -0.01704  -0.01557   0.00026
  53        2S         -0.01742   0.00041  -0.01675  -0.04860   0.00319
  54 10  H  1S          0.02895   0.02583   0.00816  -0.00000   0.00084
  55        2S          0.04728   0.04126   0.02042  -0.00000   0.00728
  56 11  H  1S         -0.02538  -0.00470  -0.01704   0.01557   0.00026
  57        2S         -0.01740   0.00042  -0.01675   0.04861   0.00319
                          11        12        13        14        15
  11        2S          0.12085
  12        2PX         0.00435   0.31091
  13        2PY        -0.01217  -0.01962   0.29226
  14        2PZ         0.00000   0.00000  -0.00000   0.21174
  15        3S          0.22463   0.00649   0.03885  -0.00002   0.68228
  16        3PX         0.00136   0.27681   0.01394  -0.00001   0.06739
  17        3PY         0.00201  -0.00135   0.17958   0.00000   0.04298
  18        3PZ        -0.00000  -0.00000   0.00000   0.25166  -0.00002
  19 3   C  1S         -0.01894  -0.02886  -0.05096   0.00000   0.05297
  20        2S          0.01198   0.02960   0.04534  -0.00000   0.03053
  21        2PX        -0.04808  -0.11090  -0.15808  -0.00000  -0.19365
  22        2PY        -0.02769  -0.06016  -0.10166   0.00000  -0.05908
  23        2PZ         0.00000   0.00000  -0.00000  -0.02054  -0.00001
  24        3S          0.02682   0.06238   0.20120   0.00001   0.07040
  25        3PX        -0.01443  -0.07652  -0.11516   0.00000  -0.07442
  26        3PY        -0.03171  -0.04060  -0.14084  -0.00001  -0.08605
  27        3PZ         0.00000   0.00000  -0.00000  -0.06817  -0.00001
  28 4   C  1S          0.00700   0.01893   0.00074   0.00000   0.04027
  29        2S         -0.00331  -0.01555  -0.00301   0.00000  -0.07060
  30        2PX         0.01790   0.02899  -0.00131   0.00000   0.10673
  31        2PY         0.00296  -0.00246  -0.03034   0.00000   0.02034
  32        2PZ         0.00000  -0.00000  -0.00000  -0.01798  -0.00001
  33        3S         -0.07170  -0.13835  -0.02807  -0.00001  -0.30327
  34        3PX         0.04789   0.06390   0.01663   0.00002   0.16590
  35        3PY         0.00576   0.00907  -0.05779  -0.00000   0.02502
  36        3PZ         0.00000   0.00000  -0.00000  -0.05080  -0.00001
  37 5   H  1S         -0.01149  -0.00835   0.03645  -0.00000  -0.00022
  38        2S         -0.00716  -0.00791   0.04369  -0.00000   0.00503
  39 6   H  1S          0.06856  -0.20070   0.01451  -0.00001   0.16535
  40        2S          0.02985  -0.13896   0.00966  -0.00000   0.06634
  41 7   H  1S         -0.00825  -0.01144  -0.03612   0.00000  -0.02793
  42        2S         -0.00398  -0.01599  -0.03506   0.00001  -0.02104
  43 8   C  1S         -0.00497  -0.00950  -0.00165  -0.00000  -0.02232
  44        2S          0.00389   0.00724   0.00176   0.00000   0.01845
  45        2PX        -0.01343  -0.02449  -0.00498  -0.00000  -0.02753
  46        2PY         0.00088   0.00368   0.00707  -0.00000   0.00192
  47        2PZ         0.00000   0.00000  -0.00000  -0.00774   0.00000
  48        3S          0.01003   0.04623   0.00330  -0.00001   0.05466
  49        3PX        -0.00905  -0.02906  -0.00278   0.00000  -0.02402
  50        3PY        -0.00033   0.00426   0.01808  -0.00001  -0.00097
  51        3PZ        -0.00000   0.00000  -0.00000  -0.02238   0.00000
  52 9   H  1S         -0.00034  -0.00059  -0.00404  -0.00168   0.00615
  53        2S         -0.00320  -0.00799  -0.00628  -0.02213  -0.00460
  54 10  H  1S         -0.00173  -0.00126   0.00693  -0.00000   0.00103
  55        2S         -0.00672  -0.01277   0.00626  -0.00000  -0.01912
  56 11  H  1S         -0.00034  -0.00059  -0.00403   0.00168   0.00615
  57        2S         -0.00321  -0.00800  -0.00628   0.02213  -0.00460
                          16        17        18        19        20
  16        3PX         0.27371
  17        3PY         0.01748   0.12015
  18        3PZ        -0.00001   0.00000   0.30553
  19 3   C  1S          0.01571  -0.00569   0.00000   2.03922
  20        2S          0.03242   0.01090  -0.00000   0.10409   0.11780
  21        2PX        -0.14025  -0.12347  -0.00000  -0.00524   0.01323
  22        2PY        -0.04132  -0.06707   0.00000  -0.00039  -0.00438
  23        2PZ        -0.00001   0.00000  -0.06323  -0.00000  -0.00000
  24        3S          0.08606   0.07607   0.00001  -0.42551   0.21610
  25        3PX        -0.09057  -0.08514   0.00000  -0.00531  -0.00184
  26        3PY        -0.04175  -0.08770  -0.00001   0.08746   0.00111
  27        3PZ        -0.00001   0.00000  -0.12761   0.00000   0.00000
  28 4   C  1S          0.02575   0.00510  -0.00000   0.01896  -0.03276
  29        2S         -0.04804  -0.00417   0.00000  -0.03309   0.02419
  30        2PX         0.06501   0.01144  -0.00000   0.04131  -0.04491
  31        2PY         0.01091  -0.05182   0.00000  -0.06982   0.07323
  32        2PZ        -0.00001   0.00000  -0.05782  -0.00000   0.00000
  33        3S         -0.20341  -0.02702  -0.00001   0.07866   0.03730
  34        3PX         0.09453   0.02138   0.00001  -0.03909  -0.03640
  35        3PY         0.01881  -0.05254  -0.00000   0.00769   0.03374
  36        3PZ        -0.00001   0.00000  -0.10407  -0.00000   0.00000
  37 5   H  1S          0.01665   0.03595  -0.00000  -0.01161   0.01100
  38        2S          0.01189   0.03385  -0.00000  -0.01358   0.00667
  39 6   H  1S         -0.17799   0.00817  -0.00000   0.00846  -0.00818
  40        2S         -0.12628   0.00360  -0.00000   0.01496  -0.00421
  41 7   H  1S         -0.00495  -0.03748   0.00000  -0.07211   0.06744
  42        2S         -0.01392  -0.02895   0.00001  -0.02720   0.02980
  43 8   C  1S         -0.00793  -0.00454  -0.00000  -0.00274   0.00342
  44        2S          0.01028   0.00317   0.00000   0.00384  -0.00493
  45        2PX        -0.02396  -0.01138   0.00000  -0.00931   0.01320
  46        2PY         0.00298   0.01430  -0.00000   0.00746  -0.00822
  47        2PZ         0.00000  -0.00000  -0.00770   0.00000   0.00000
  48        3S          0.05018   0.00678  -0.00001   0.01634   0.00082
  49        3PX        -0.03003  -0.00700   0.00000  -0.01221   0.00520
  50        3PY         0.00234   0.02250  -0.00001   0.00348  -0.01149
  51        3PZ         0.00000  -0.00000  -0.02273   0.00000  -0.00000
  52 9   H  1S          0.00157  -0.00753  -0.00636  -0.00506   0.00532
  53        2S         -0.00616  -0.01042  -0.03590  -0.00691   0.00774
  54 10  H  1S         -0.00129   0.01110  -0.00000   0.00713  -0.00679
  55        2S         -0.01537   0.01011  -0.00000   0.01068  -0.00711
  56 11  H  1S          0.00157  -0.00753   0.00636  -0.00506   0.00531
  57        2S         -0.00615  -0.01041   0.03590  -0.00691   0.00773
                          21        22        23        24        25
  21        2PX         0.27815
  22        2PY        -0.01999   0.30400
  23        2PZ        -0.00000   0.00000   0.23733
  24        3S         -0.04673   0.00967   0.00002   0.69268
  25        3PX         0.16025   0.00677   0.00000  -0.05175   0.10097
  26        3PY         0.02141   0.26645  -0.00001  -0.06836   0.03186
  27        3PZ        -0.00000  -0.00000   0.28958   0.00003   0.00000
  28 4   C  1S         -0.06714   0.04387   0.00000   0.06445   0.00069
  29        2S          0.06933  -0.04781  -0.00000   0.03535   0.02515
  30        2PX        -0.10789   0.08338   0.00001  -0.00389  -0.07060
  31        2PY         0.15553  -0.11716  -0.00000   0.19597   0.08320
  32        2PZ         0.00000  -0.00001   0.22006   0.00002   0.00000
  33        3S          0.22273  -0.04316  -0.00002  -0.05241   0.08816
  34        3PX        -0.12195   0.02457   0.00002   0.05594  -0.07691
  35        3PY         0.11605  -0.08587  -0.00000   0.07245   0.06546
  36        3PZ         0.00000  -0.00001   0.26877   0.00003   0.00000
  37 5   H  1S         -0.00615  -0.02215  -0.00000   0.04056  -0.01353
  38        2S         -0.00857  -0.03410   0.00001   0.04215  -0.01404
  39 6   H  1S          0.03571   0.00968  -0.00000  -0.02926   0.03871
  40        2S          0.03663   0.01313  -0.00001  -0.02489   0.03187
  41 7   H  1S         -0.00607   0.19747   0.00000   0.17085   0.00302
  42        2S         -0.00673   0.14066   0.00000   0.07420   0.00260
  43 8   C  1S          0.01265  -0.00195  -0.00000   0.02677   0.01135
  44        2S         -0.01355   0.00383   0.00000  -0.00931  -0.01207
  45        2PX         0.03895  -0.01399  -0.00000  -0.02977   0.04367
  46        2PY        -0.01523   0.00557   0.00000  -0.02543  -0.00966
  47        2PZ        -0.00000   0.00000  -0.02183  -0.00001  -0.00000
  48        3S         -0.03667  -0.00435  -0.00000  -0.03933  -0.02589
  49        3PX         0.03225  -0.00867   0.00000  -0.02145   0.02988
  50        3PY        -0.03414   0.01673   0.00001  -0.03204  -0.01956
  51        3PZ         0.00000   0.00000  -0.03313  -0.00001  -0.00000
  52 9   H  1S          0.01044  -0.00756   0.03444   0.00193   0.00839
  53        2S          0.02119  -0.00885   0.06770   0.00875   0.01672
  54 10  H  1S         -0.01385   0.00768   0.00001  -0.04224  -0.00381
  55        2S         -0.00866   0.01652   0.00001  -0.04642   0.00139
  56 11  H  1S          0.01044  -0.00755  -0.03445   0.00191   0.00838
  57        2S          0.02119  -0.00885  -0.06771   0.00872   0.01671
                          26        27        28        29        30
  26        3PY         0.27575
  27        3PZ        -0.00002   0.36258
  28 4   C  1S         -0.02085   0.00000   2.04009
  29        2S         -0.03514  -0.00000   0.10005   0.12347
  30        2PX        -0.00007   0.00001  -0.00066   0.00370   0.32120
  31        2PY        -0.12808  -0.00000  -0.00522   0.01285  -0.02313
  32        2PZ        -0.00002   0.26628   0.00000  -0.00000  -0.00000
  33        3S          0.01189  -0.00003  -0.41079   0.22014  -0.04431
  34        3PX        -0.06872   0.00003   0.06239  -0.00141   0.29519
  35        3PY        -0.08491  -0.00000  -0.00457  -0.00190  -0.00782
  36        3PZ        -0.00002   0.33281  -0.00000  -0.00000   0.00000
  37 5   H  1S         -0.02789   0.00000   0.00753  -0.00773   0.01331
  38        2S         -0.04596   0.00001   0.01065  -0.00293   0.02270
  39 6   H  1S          0.00274  -0.00000  -0.01183   0.01054  -0.02446
  40        2S          0.01367  -0.00001  -0.01301   0.00652  -0.03727
  41 7   H  1S          0.17539  -0.00000   0.00808  -0.01161   0.01017
  42        2S          0.12589  -0.00000   0.01498  -0.00734   0.01584
[...]
  38        2S          0.00000   0.00024   0.00000   0.00155   0.00005
  39 6   H  1S         -0.00003  -0.00000   0.00000  -0.00076  -0.00297
  40        2S         -0.00155  -0.00025   0.00000  -0.00362  -0.00816
  41 7   H  1S          0.00008   0.05972   0.00000   0.05881  -0.00006
  42        2S          0.00007   0.03311   0.00000   0.05010  -0.00006
  43 8   C  1S          0.00000   0.00000   0.00000   0.00004   0.00007
  44        2S         -0.00000  -0.00000  -0.00000  -0.00016  -0.00066
  45        2PX        -0.00003  -0.00001  -0.00000   0.00065  -0.00255
  46        2PY        -0.00001  -0.00000  -0.00000  -0.00026  -0.00031
  47        2PZ        -0.00000  -0.00000  -0.00000  -0.00000  -0.00000
  48        3S         -0.00080   0.00004   0.00000  -0.00351  -0.00461
  49        3PX        -0.00189  -0.00028   0.00000   0.00382  -0.00793
  50        3PY        -0.00110  -0.00007  -0.00000  -0.00265  -0.00322
  51        3PZ         0.00000  -0.00000  -0.00036  -0.00000  -0.00000
  52 9   H  1S          0.00000   0.00000  -0.00000   0.00000   0.00004
  53        2S          0.00007   0.00002  -0.00007   0.00021   0.00088
  54 10  H  1S         -0.00000  -0.00000  -0.00000  -0.00025  -0.00009
  55        2S         -0.00012  -0.00001  -0.00000  -0.00279   0.00019
  56 11  H  1S          0.00000   0.00000  -0.00000   0.00000   0.00004
  57        2S          0.00007   0.00002  -0.00007   0.00021   0.00088
                          26        27        28        29        30
  26        3PY         0.27575
  27        3PZ         0.00000   0.36258
  28 4   C  1S          0.00171  -0.00000   2.04009
  29        2S          0.01252   0.00000   0.01915   0.12347
  30        2PX        -0.00001   0.00000   0.00000   0.00000   0.32120
  31        2PY         0.00178   0.00000   0.00000   0.00000   0.00000
  32        2PZ         0.00000   0.04993   0.00000   0.00000   0.00000
  33        3S         -0.00510   0.00000  -0.07407   0.16760   0.00000
  34        3PX        -0.02323   0.00000   0.00000   0.00000   0.15614
  35        3PY        -0.01483   0.00000   0.00000   0.00000   0.00000
  36        3PZ         0.00000   0.17479   0.00000   0.00000   0.00000
  37 5   H  1S          0.00031   0.00000   0.00000  -0.00000  -0.00001
  38        2S          0.00427   0.00000   0.00005  -0.00011  -0.00046
  39 6   H  1S         -0.00009   0.00000  -0.00000   0.00000   0.00000
  40        2S         -0.00156   0.00000  -0.00000   0.00003   0.00026
  41 7   H  1S          0.08857  -0.00000   0.00000  -0.00001  -0.00001
  42        2S          0.07392  -0.00000   0.00010  -0.00037  -0.00040
  43 8   C  1S          0.00005   0.00000   0.00000  -0.00008  -0.00063
  44        2S          0.00000  -0.00000  -0.00007   0.00163   0.00947
  45        2PX         0.00134  -0.00000  -0.00073   0.01103   0.04904
  46        2PY        -0.00001  -0.00000  -0.00001   0.00009   0.00060
  47        2PZ        -0.00000  -0.00038  -0.00000   0.00000   0.00000
  48        3S         -0.00196   0.00000  -0.00061   0.00792   0.02037
  49        3PX         0.00368   0.00000  -0.00211   0.01821   0.02880
  50        3PY         0.00020  -0.00000   0.00002   0.00013   0.00056
  51        3PZ        -0.00000  -0.00395  -0.00000   0.00000   0.00000
  52 9   H  1S         -0.00001  -0.00007   0.00000  -0.00002  -0.00009
  53        2S         -0.00009  -0.00161   0.00022  -0.00131  -0.00357
  54 10  H  1S         -0.00002  -0.00000   0.00000  -0.00002  -0.00008
  55        2S         -0.00018  -0.00000   0.00015  -0.00127  -0.00405
  56 11  H  1S         -0.00001  -0.00007   0.00000  -0.00002  -0.00009
  57        2S         -0.00009  -0.00161   0.00022  -0.00131  -0.00357
                          31        32        33        34        35
  31        2PY         0.29202
  32        2PZ         0.00000   0.21449
  33        3S          0.00000   0.00000   0.68663
  34        3PX         0.00000   0.00000   0.00000   0.33996
  35        3PY         0.10638   0.00000   0.00000   0.00000   0.15549
  36        3PZ         0.00000   0.13392   0.00000   0.00000   0.00000
  37 5   H  1S         -0.00003   0.00000  -0.00072  -0.00020  -0.00344
  38        2S         -0.00157   0.00000  -0.00302  -0.00294  -0.00959
  39 6   H  1S         -0.00000  -0.00000   0.00014   0.00029  -0.00000
  40        2S         -0.00000   0.00000   0.00185   0.00410  -0.00000
  41 7   H  1S         -0.00006  -0.00000  -0.00016   0.00078  -0.00420
  42        2S         -0.00230  -0.00000   0.00064   0.00050  -0.01208
  43 8   C  1S         -0.00000  -0.00000   0.00190   0.00576   0.00008
  44        2S          0.00005   0.00000   0.00189   0.01027  -0.00007
  45        2PX         0.00045   0.00000   0.03459   0.05518   0.00061
  46        2PY         0.00052  -0.00000   0.00022   0.00096  -0.00287
  47        2PZ         0.00000   0.00142   0.00000  -0.00000  -0.00000
  48        3S          0.00014   0.00000  -0.04402  -0.05039  -0.00090
  49        3PX         0.00042   0.00000   0.04240   0.03114   0.00050
  50        3PY        -0.00323  -0.00000   0.00042   0.00095  -0.01935
  51        3PZ         0.00000   0.00256   0.00000  -0.00000  -0.00000
  52 9   H  1S         -0.00001  -0.00000  -0.00232  -0.00717  -0.00092
  53        2S         -0.00037  -0.00114  -0.00990  -0.01961  -0.00257
  54 10  H  1S         -0.00001  -0.00000  -0.00226  -0.00811  -0.00102
  55        2S         -0.00069  -0.00000  -0.00696  -0.02547  -0.00462
  56 11  H  1S         -0.00001  -0.00000  -0.00232  -0.00717  -0.00092
  57        2S         -0.00037  -0.00114  -0.00989  -0.01962  -0.00257
                          36        37        38        39        40
  36        3PZ         0.30961
  37 5   H  1S          0.00000   0.18124
  38        2S          0.00000   0.07428   0.07759
  39 6   H  1S          0.00000  -0.00000  -0.00003   0.18267
  40        2S          0.00000  -0.00003  -0.00024   0.07391   0.07551
  41 7   H  1S         -0.00000  -0.00000  -0.00000  -0.00000   0.00002
  42        2S         -0.00000  -0.00000  -0.00008   0.00002   0.00035
  43 8   C  1S          0.00000   0.00000   0.00000   0.00000   0.00000
  44        2S         -0.00000  -0.00000   0.00000  -0.00000  -0.00000
  45        2PX         0.00000  -0.00000   0.00006  -0.00000  -0.00000
  46        2PY        -0.00000  -0.00000   0.00001  -0.00000  -0.00000
  47        2PZ        -0.00041   0.00000  -0.00000   0.00000  -0.00000
  48        3S          0.00000   0.00001  -0.00009  -0.00000  -0.00002
  49        3PX         0.00000   0.00003   0.00063  -0.00000  -0.00007
  50        3PY        -0.00000   0.00003   0.00039  -0.00000   0.00000
  51        3PZ        -0.00764   0.00000  -0.00000   0.00000  -0.00000
  52 9   H  1S         -0.00171  -0.00000  -0.00000   0.00000   0.00000
  53        2S         -0.01085   0.00000   0.00001   0.00000   0.00000
  54 10  H  1S         -0.00000  -0.00000  -0.00000   0.00000   0.00000
  55        2S         -0.00000  -0.00000  -0.00003   0.00000   0.00000
  56 11  H  1S         -0.00171  -0.00000  -0.00000   0.00000   0.00000
  57        2S         -0.01086   0.00000   0.00001   0.00000   0.00000
                          41        42        43        44        45
  41 7   H  1S          0.18090
  42        2S          0.07479   0.07809
  43 8   C  1S          0.00000   0.00000   2.03871
  44        2S         -0.00000  -0.00001   0.02297   0.09992
  45        2PX        -0.00000   0.00001   0.00000   0.00000   0.28523
  46        2PY        -0.00000   0.00001   0.00000   0.00000   0.00000
  47        2PZ         0.00000  -0.00000   0.00000   0.00000   0.00000
  48        3S         -0.00001  -0.00035  -0.08242   0.17683   0.00000
  49        3PX        -0.00001   0.00011   0.00000   0.00000   0.08158
  50        3PY         0.00002   0.00046   0.00000   0.00000   0.00000
  51        3PZ         0.00000  -0.00000   0.00000   0.00000   0.00000
  52 9   H  1S         -0.00000  -0.00000  -0.00075   0.00765   0.00473
  53        2S          0.00000  -0.00002   0.00143   0.00274   0.00445
  54 10  H  1S          0.00000   0.00001  -0.00077   0.00785   0.01061
  55        2S          0.00002   0.00034   0.00135   0.00320   0.00957
  56 11  H  1S         -0.00000  -0.00000  -0.00075   0.00765   0.00473
  57        2S          0.00000  -0.00002   0.00143   0.00274   0.00445
                          46        47        48        49        50
  46        2PY         0.27918
  47        2PZ         0.00000   0.27484
  48        3S          0.00000   0.00000   0.90227
  49        3PX         0.00000   0.00000   0.00000   0.08570
  50        3PY         0.13370   0.00000   0.00000   0.00000   0.23321
  51        3PZ         0.00000   0.12818   0.00000   0.00000   0.00000
  52 9   H  1S          0.01386   0.03543   0.05777   0.00382   0.02305
  53        2S          0.01108   0.02894   0.03275   0.00542   0.02557
  54 10  H  1S          0.04436   0.00000   0.05776   0.01186   0.07460
  55        2S          0.03455   0.00000   0.03395   0.01517   0.08275
  56 11  H  1S          0.01384   0.03545   0.05777   0.00382   0.02302
  57        2S          0.01106   0.02896   0.03275   0.00542   0.02554
                          51        52        53        54        55
  51        3PZ         0.21582
  52 9   H  1S          0.05746   0.17194
  53        2S          0.06561   0.09516   0.14889
  54 10  H  1S          0.00000  -0.00013  -0.00412   0.17287
  55        2S          0.00000  -0.00405  -0.01219   0.09238   0.13437
  56 11  H  1S          0.05749  -0.00013  -0.00480  -0.00013  -0.00405
  57        2S          0.06564  -0.00480  -0.01833  -0.00412  -0.01219
                          56        57
  56 11  H  1S          0.17193
  57        2S          0.09516   0.14889
     Gross orbital populations:
                           1
   1 1   C  1S          1.98849
   2        2S          0.39148
   3        2PX         0.54233
   4        2PY         0.59252
   5        2PZ         0.42436
   6        3S          0.88946
   7        3PX         0.30782
   8        3PY         0.47781
   9        3PZ         0.61014
  10 2   C  1S          1.98850
  11        2S          0.39551
  12        2PX         0.59674
  13        2PY         0.55708
  14        2PZ         0.39588
  15        3S          0.90952
  16        3PX         0.49857
  17        3PY         0.33045
  18        3PZ         0.56764
  19 3   C  1S          1.98848
  20        2S          0.38915
  21        2PX         0.53619
  22        2PY         0.58864
  23        2PZ         0.44036
  24        3S          0.88911
  25        3PX         0.29989
  26        3PY         0.47476
  27        3PZ         0.62776
  28 4   C  1S          1.98860
  29        2S          0.40054
  30        2PX         0.61117
  31        2PY         0.55634
  32        2PZ         0.39972
  33        3S          0.81523
  34        3PX         0.36108
  35        3PY         0.34356
  36        3PZ         0.54503
  37 5   H  1S          0.46829
  38        2S          0.29349
  39 6   H  1S          0.47022
  40        2S          0.29122
  41 7   H  1S          0.46802
  42        2S          0.29855
  43 8   C  1S          1.98852
  44        2S          0.35303
  45        2PX         0.55252
  46        2PY         0.54009
  47        2PZ         0.53247
  48        3S          1.18527
  49        3PX         0.32296
  50        3PY         0.58906
  51        3PZ         0.57950
  52 9   H  1S          0.44862
  53        2S          0.33358
  54 10  H  1S          0.45124
  55        2S          0.33127
  56 11  H  1S          0.44862
  57        2S          0.33358
          Condensed to atoms (all electrons):
               1          2          3          4          5          6
     1  C    5.354216   0.572760  -0.396613   0.347469   0.381969  -0.014044
     2  C    0.572760   5.335987   0.352043  -0.379815  -0.012762   0.381896
     3  C   -0.396613   0.352043   5.381705   0.555242   0.006566  -0.019097
     4  C    0.347469  -0.379815   0.555242   5.501224  -0.022046   0.006661
     5  H    0.381969  -0.012762   0.006566  -0.022046   0.407398  -0.000301
     6  H   -0.014044   0.381896  -0.019097   0.006661  -0.000301   0.406011
     7  H    0.006012  -0.017639   0.386315  -0.017565  -0.000080   0.000401
     8  C   -0.030673   0.007558  -0.027263   0.207182   0.001044  -0.000092
     9  H    0.000512   0.000037  -0.000623  -0.061334   0.000013   0.000001
    10  H    0.002280  -0.000207  -0.003326  -0.054422  -0.000031   0.000002
    11  H    0.000514   0.000037  -0.000625  -0.061338   0.000013   0.000001
               7          8          9         10         11
     1  C    0.006012  -0.030673   0.000512   0.002280   0.000514
     2  C   -0.017639   0.007558   0.000037  -0.000207   0.000037
     3  C    0.386315  -0.027263  -0.000623  -0.003326  -0.000625
     4  C   -0.017565   0.207182  -0.061334  -0.054422  -0.061338
     5  H   -0.000080   0.001044   0.000013  -0.000031   0.000013
     6  H    0.000401  -0.000092   0.000001   0.000002   0.000001
     7  H    0.408572   0.000235  -0.000023   0.000372  -0.000023
     8  C    0.000235   5.336556   0.381018   0.386822   0.381018
     9  H   -0.000023   0.381018   0.511155  -0.020486  -0.028070
    10  H    0.000372   0.386822  -0.020486   0.491992  -0.020486
    11  H   -0.000023   0.381018  -0.028070  -0.020486   0.511156
 Mulliken charges:
               1
     1  C   -0.224404
     2  C   -0.239896
     3  C   -0.234325
     4  C   -0.021259
     5  H    0.238217
     6  H    0.238557
     7  H    0.233425
     8  C   -0.643407
     9  H    0.217799
    10  H    0.217490
    11  H    0.217803
 Sum of Mulliken charges =  -0.00000
 Mulliken charges with hydrogens summed into heavy atoms:
               1
     1  C    0.013813
     2  C   -0.001339
     3  C   -0.000900
     4  C   -0.021259
     8  C    0.009685
 Electronic spatial extent (au):  <R**2>=            390.2317
 Charge=              0.0000 electrons
 Dipole moment (field-independent basis, Debye):
    X=              0.3953    Y=             -0.0964    Z=             -0.0000  Tot=              0.4068
 Quadrupole moment (field-independent basis, Debye-Ang):
   XX=            -27.8251   YY=            -28.4265   ZZ=            -34.1322
   XY=             -1.0244   XZ=              0.0001   YZ=             -0.0001
 Traceless Quadrupole moment (field-independent basis, Debye-Ang):
   XX=              2.3029   YY=              1.7014   ZZ=             -4.0043
   XY=             -1.0244   XZ=              0.0001   YZ=             -0.0001
 Octapole moment (field-independent basis, Debye-Ang**2):
  XXX=             -4.0972  YYY=              0.4693  ZZZ=              0.0002  XYY=             -0.1228
  XXY=              1.8858  XXZ=             -0.0004  XZZ=              3.3857  YZZ=             -0.9413
  YYZ=             -0.0002  XYZ=             -0.0000
 Hexadecapole moment (field-independent basis, Debye-Ang**3):
 XXXX=           -329.8286 YYYY=           -118.4380 ZZZZ=            -42.9183 XXXY=             -2.6835
 XXXZ=              0.0024 YYYX=              0.2076 YYYZ=              0.0002 ZZZX=              0.0026
 ZZZY=              0.0005 XXYY=            -81.9471 XXZZ=            -68.6873 YYZZ=            -33.3492
 XXYZ=             -0.0002 YYXZ=             -0.0008 ZZXY=             -3.0459
 N-N= 1.507854552881D+02 E-N=-7.468789647102D+02  KE= 1.911284827070D+02
 Orbital energies and kinetic energies (alpha):
                                 1                 2
   1         O               -11.194737         15.878577
   2         O               -11.188210         15.879279
   3         O               -11.179766         15.878826
   4         O               -11.177102         15.878310
   5         O               -11.172823         15.878890
   6         O                -1.171800          1.478720
   7         O                -1.002148          1.414765
   8         O                -0.881782          1.549486
   9         O                -0.804713          1.356996
  10         O                -0.690651          1.097606
  11         O                -0.655359          1.252724
  12         O                -0.596156          1.018206
  13         O                -0.575686          0.891332
  14         O                -0.546785          1.378706
  15         O                -0.498522          1.241788
  16         O                -0.457568          0.928657
  17         O                -0.446323          1.384189
  18         O                -0.258772          1.177185
  19         V                 0.098570          1.091275
  20         V                 0.266827          1.190937
  21         V                 0.284293          1.086955
  22         V                 0.305163          1.102162
  23         V                 0.308813          0.981250
  24         V                 0.331547          1.217304
  25         V                 0.352074          1.254663
  26         V                 0.365648          1.096027
  27         V                 0.370703          1.093412
  28         V                 0.454182          1.583215
  29         V                 0.515083          1.442804
  30         V                 0.557356          1.609093
  31         V                 0.785509          2.742288
  32         V                 0.867965          2.083704
  33         V                 0.920294          2.589562
  34         V                 0.951323          2.155274
  35         V                 0.972568          2.316577
  36         V                 1.001555          2.581150
  37         V                 1.017755          2.561655
  38         V                 1.061863          2.695400
  39         V                 1.105129          2.640783
  40         V                 1.161345          3.060098
  41         V                 1.176418          2.756326
  42         V                 1.181334          2.553788
  43         V                 1.242025          3.088637
  44         V                 1.278652          3.035324
  45         V                 1.314967          2.973402
  46         V                 1.317189          2.846163
  47         V                 1.334629          3.207792
  48         V                 1.355939          3.380983
  49         V                 1.364776          2.964519
  50         V                 1.514747          2.785765
  51         V                 1.571895          2.896486
  52         V                 1.596634          2.979855
  53         V                 1.699895          3.127036
  54         V                 1.945573          3.041942
  55         V                 2.078044          3.393211
  56         V                 2.272641          3.304267
  57         V                 2.584676          3.477136
 Total kinetic energy from orbitals= 1.911284827070D+02
 1\1\GINC-IISERK51\SP\RHF\3-21G*\C5H6\GAUSSIAN\12-Jun-2025\0\\# hf/3-21
 g* pop=full geom=connectivity\\Optimisation\\0,1\C,0,-0.682932,-1.0006
 94,0.000045\C,0,-1.615096,-0.019554,-0.000021\C,0,-0.505869,1.045596,0
 .000025\C,0,0.436042,0.068715,-0.000007\H,0,-0.634317,-2.076364,0.0000
 75\H,0,-2.688273,0.074805,-0.000051\H,0,-0.551026,2.121507,0.000026\C,
 0,1.878297,-0.06167,-0.000032\H,0,2.217492,-0.627465,-0.90605\H,0,2.37
 5916,0.940253,-0.000251\H,0,2.217552,-0.627094,0.906196\\Version=EM64L
 -G16RevB.01\State=1-A\HF=-191.5886872\RMSD=9.764e-09\Dipole=0.1555041,
 -0.0379271,-0.0000119\Quadrupole=1.7121227,1.2649491,-2.9770718,-0.761
 6514,0.0000638,-0.0000683\PG=C01 [X(C5H6)]\\@


 PICNIC:  A SNACK IN THE GRASS.
 Job cpu time:       0 days  0 hours  0 minutes  0.7 seconds.
 Elapsed time:       0 days  0 hours  0 minutes  0.7 seconds.
 File lengths (MBytes):  RWF=      6 Int=      0 D2E=      0 Chk=      1 Scr=      1
 Normal termination of Gaussian 16 at Thu Jun 12 22:22:48 2025.
