 Entering Gaussian System, Link 0=g16
 Input=/home/gaussian/Documents/program files/Aromaticity/AM1 HF3-21G*/cyclobutadiene/sp/meth_cyclobutadiene_isomer_sp.com
 Output=/home/gaussian/Documents/program files/Aromaticity/AM1 HF3-21G*/cyclobutadiene/sp/meth_cyclobutadiene_isomer_sp.log
 Initial command:
 /usr/local/g16/l1.exe "/home/gaussian/tmp/Gau-142988.inp" -scrdir="/home/gaussian/tmp/"
 Entering Link 1 = /usr/local/g16/l1.exe PID=    142991.
  
 Copyright (c) 1988-2017, Gaussian, Inc.  All Rights Reserved.
  
 This is part of the Gaussian(R) 16 program.  It is based on
 the Gaussian(R) 09 system (copyright 2009, Gaussian, Inc.),
 the Gaussian(R) 03 system (copyright 2003, Gaussian, Inc.),
 the Gaussian(R) 98 system (copyright 1998, Gaussian, Inc.),
 the Gaussian(R) 94 system (copyright 1995, Gaussian, Inc.),
 the Gaussian 92(TM) system (copyright 1992, Gaussian, Inc.),
 the Gaussian 90(TM) system (copyright 1990, Gaussian, Inc.),
 the Gaussian 88(TM) system (copyright 1988, Gaussian, Inc.),
 the Gaussian 86(TM) system (copyright 1986, Carnegie Mellon
 University), and the Gaussian 82(TM) system (copyright 1983,
 Carnegie Mellon University). Gaussian is a federally registered
 trademark of Gaussian, Inc.
  
 This software contains proprietary and confidential information,
 including trade secrets, belonging to Gaussian, Inc.
  
 This software is provided under written license and may be
 used, copied, transmitted, or stored only in accord with that
 written license.
  
 The following legend is applicable only to US Government
 contracts under FAR:
  
                    RESTRICTED RIGHTS LEGEND
  
 Use, reproduction and disclosure by the US Government is
 subject to restrictions as set forth in subparagraphs (a)
 and (c) of the Commercial Computer Software - Restricted
 Rights clause in FAR 52.227-19.
  
 Gaussian, Inc.
 340 Quinnipiac St., Bldg. 40, Wallingford CT 06492
  
  
 ---------------------------------------------------------------
 Warning -- This program may not be used in any manner that
 competes with the business of Gaussian, Inc. or will provide
 assistance to any competitor of Gaussian, Inc.  The licensee
 of this program is prohibited from giving any competitor of
 Gaussian, Inc. access to this program.  By using this program,
 the user acknowledges that Gaussian, Inc. is engaged in the
 business of creating and licensing software in the field of
 computational chemistry and represents and warrants to the
 licensee that it is not a competitor of Gaussian, Inc. and that
 it will not use this program in any manner prohibited above.
 ---------------------------------------------------------------
  

 Cite this work as:
 Gaussian 16, Revision B.01,
 M. J. Frisch, G. W. Trucks, H. B. Schlegel, G. E. Scuseria, 
 M. A. Robb, J. R. Cheeseman, G. Scalmani, V. Barone, 
 G. A. Petersson, H. Nakatsuji, X. Li, M. Caricato, A. V. Marenich, 
 J. Bloino, B. G. Janesko, R. Gomperts, B. Mennucci, H. P. Hratchian, 
 J. V. Ortiz, A. F. Izmaylov, J. L. Sonnenberg, D. Williams-Young, 
 F. Ding, F. Lipparini, F. Egidi, J. Goings, B. Peng, A. Petrone, 
 T. Henderson, D. Ranasinghe, V. G. Zakrzewski, J. Gao, N. Rega, 
 G. Zheng, W. Liang, M. Hada, M. Ehara, K. Toyota, R. Fukuda, 
 J. Hasegawa, M. Ishida, T. Nakajima, Y. Honda, O. Kitao, H. Nakai, 
 T. Vreven, K. Throssell, J. A. Montgomery, Jr., J. E. Peralta, 
 F. Ogliaro, M. J. Bearpark, J. J. Heyd, E. N. Brothers, K. N. Kudin, 
 V. N. Staroverov, T. A. Keith, R. Kobayashi, J. Normand, 
 K. Raghavachari, A. P. Rendell, J. C. Burant, S. S. Iyengar, 
 J. Tomasi, M. Cossi, J. M. Millam, M. Klene, C. Adamo, R. Cammi, 
 J. W. Ochterski, R. L. Martin, K. Morokuma, O. Farkas, 
 J. B. Foresman, and D. J. Fox, Gaussian, Inc., Wallingford CT, 2016.
 
 ******************************************
 Gaussian 16:  EM64L-G16RevB.01 20-Dec-2017
                12-Jun-2025 
 ******************************************
 %chk=meth_cyclobutadiene_isomer_sp.chk
 --------------------------------------
 # hf/3-21g* pop=full geom=connectivity
 --------------------------------------
 1/38=1,57=2,172=1/1;
 2/12=2,17=6,18=5,40=1/2;
 3/5=5,7=1,11=9,25=1,30=1/1,2,3;
 4//1;
 5/5=2,38=5/2;
 6/7=3,28=1/1;
 99/5=1,9=1/99;
 ------------
 Optimisation
 ------------
 Symbolic Z-matrix:
 Charge =  0 Multiplicity = 1
 C                     0.51839  -1.0558   -0.00027 
 C                     1.50868  -0.12357   0.0003 
 C                     0.53173   1.05302  -0.00015 
 C                    -0.55661  -0.02747   0.00001 
 H                     0.46068  -2.13474  -0.00044 
 H                     2.58785  -0.12795   0.00058 
 H                     0.55964   1.68532  -0.91203 
 C                    -1.87603  -0.0237    0.00014 
 H                    -2.45892   0.90651   0.00022 
 H                    -2.46558  -0.94976   0.00012 
 H                     0.55942   1.68575   0.91143 
 
                          Input orientation:                          
 ---------------------------------------------------------------------
 Center     Atomic      Atomic             Coordinates (Angstroms)
 Number     Number       Type             X           Y           Z
 ---------------------------------------------------------------------
      1          6           0        0.518386   -1.055798   -0.000268
      2          6           0        1.508678   -0.123572    0.000299
      3          6           0        0.531732    1.053024   -0.000154
      4          6           0       -0.556611   -0.027473    0.000010
      5          1           0        0.460680   -2.134741   -0.000444
      6          1           0        2.587851   -0.127950    0.000580
      7          1           0        0.559640    1.685318   -0.912032
      8          6           0       -1.876033   -0.023702    0.000135
      9          1           0       -2.458917    0.906507    0.000218
     10          1           0       -2.465579   -0.949761    0.000115
     11          1           0        0.559415    1.685748    0.911429
 ---------------------------------------------------------------------
                    Distance matrix (angstroms):
                    1          2          3          4          5
     1  C    0.000000
     2  C    1.360046   0.000000
     3  C    2.108864   1.529314   0.000000
     4  C    1.487639   2.067524   1.533612   0.000000
     5  H    1.080485   2.267841   3.188557   2.339970   0.000000
     6  H    2.267948   1.079182   2.371144   3.146067   2.924392
     7  H    2.889071   2.237209   1.109998   2.238636   3.928567
     8  C    2.607387   3.386184   2.637550   1.319427   3.149081
     9  H    3.565806   4.099131   2.994236   2.119218   4.215832
    10  H    2.985848   4.059225   3.604861   2.120088   3.157082
    11  H    2.889455   2.237163   1.109995   2.238599   3.929045
                    6          7          8          9         10
     6  H    0.000000
     7  H    2.869572   0.000000
     8  C    4.465101   3.112122   0.000000
     9  H    5.151696   3.248143   1.097744   0.000000
    10  H    5.119817   4.114317   1.097793   1.856280   0.000000
    11  H    2.869442   1.823461   3.111926   3.247745   4.114242
                   11
    11  H    0.000000
 Stoichiometry    C5H6
 Framework group  C1[X(C5H6)]
 Deg. of freedom    27
 Full point group                 C1      NOp   1
 Largest Abelian subgroup         C1      NOp   1
 Largest concise Abelian subgroup C1      NOp   1
                         Standard orientation:                         
 ---------------------------------------------------------------------
 Center     Atomic      Atomic             Coordinates (Angstroms)
 Number     Number       Type             X           Y           Z
 ---------------------------------------------------------------------
      1          6           0        0.518386    1.055798    0.000268
      2          6           0        1.508678    0.123572   -0.000299
      3          6           0        0.531732   -1.053024    0.000154
      4          6           0       -0.556611    0.027473   -0.000010
      5          1           0        0.460680    2.134741    0.000444
      6          1           0        2.587851    0.127950   -0.000580
      7          1           0        0.559640   -1.685318    0.912032
      8          6           0       -1.876033    0.023702   -0.000135
      9          1           0       -2.458917   -0.906507   -0.000218
     10          1           0       -2.465579    0.949761   -0.000115
     11          1           0        0.559415   -1.685748   -0.911429
 ---------------------------------------------------------------------
 Rotational constants (GHZ):          12.4458503           4.9854154           3.6456113
 Standard basis: 3-21G* (6D, 7F)
 There are    57 symmetry adapted cartesian basis functions of A   symmetry.
 There are    57 symmetry adapted basis functions of A   symmetry.
    57 basis functions,    93 primitive gaussians,    57 cartesian basis functions
    18 alpha electrons       18 beta electrons
       nuclear repulsion energy       151.9766459707 Hartrees.
 NAtoms=   11 NActive=   11 NUniq=   11 SFac= 1.00D+00 NAtFMM=   60 NAOKFM=F Big=F
 Integral buffers will be    131072 words long.
 Raffenetti 1 integral format.
 Two-electron integral symmetry is turned on.
 One-electron integrals computed using PRISM.
 NBasis=    57 RedAO= T EigKep=  2.72D-03  NBF=    57
 NBsUse=    57 1.00D-06 EigRej= -1.00D+00 NBFU=    57
 ExpMin= 1.83D-01 ExpMax= 1.72D+02 ExpMxC= 1.72D+02 IAcc=3 IRadAn=         5 AccDes= 0.00D+00
 Harris functional with IExCor=  205 and IRadAn=       5 diagonalized for initial guess.
 HarFok:  IExCor=  205 AccDes= 0.00D+00 IRadAn=         5 IDoV= 1 UseB2=F ITyADJ=14
 ICtDFT=  3500011 ScaDFX=  1.000000  1.000000  1.000000  1.000000
 FoFCou: FMM=F IPFlag=           0 FMFlag=      100000 FMFlg1=           0
         NFxFlg=           0 DoJE=T BraDBF=F KetDBF=T FulRan=T
         wScrn=  0.000000 ICntrl=       500 IOpCl=  0 I1Cent=   200000004 NGrid=           0
         NMat0=    1 NMatS0=      1 NMatT0=    0 NMatD0=    1 NMtDS0=    0 NMtDT0=    0
 Petite list used in FoFCou.
 Keep R1 ints in memory in canonical form, NReq=2188280.
 Requested convergence on RMS density matrix=1.00D-08 within 128 cycles.
 Requested convergence on MAX density matrix=1.00D-06.
 Requested convergence on             energy=1.00D-06.
 No special actions if energy rises.
 SCF Done:  E(RHF) =  -191.660688987     A.U. after   12 cycles
            NFock= 12  Conv=0.92D-08     -V/T= 2.0029

 **********************************************************************

            Population analysis using the SCF Density.

 **********************************************************************

 Orbital symmetries:
       Occupied  (A) (A) (A) (A) (A) (A) (A) (A) (A) (A) (A) (A)
                 (A) (A) (A) (A) (A) (A)
       Virtual   (A) (A) (A) (A) (A) (A) (A) (A) (A) (A) (A) (A)
                 (A) (A) (A) (A) (A) (A) (A) (A) (A) (A) (A) (A)
                 (A) (A) (A) (A) (A) (A) (A) (A) (A) (A) (A) (A)
                 (A) (A) (A)
 The electronic state is 1-A.
 Alpha  occ. eigenvalues --  -11.19367 -11.19069 -11.18700 -11.18265 -11.16186
 Alpha  occ. eigenvalues --   -1.16949  -0.99577  -0.90034  -0.79908  -0.69729
 Alpha  occ. eigenvalues --   -0.66459  -0.60474  -0.59822  -0.53705  -0.48801
 Alpha  occ. eigenvalues --   -0.45471  -0.41100  -0.31984
 Alpha virt. eigenvalues --    0.13475   0.24052   0.29864   0.30427   0.31177
 Alpha virt. eigenvalues --    0.33199   0.34917   0.36154   0.38713   0.43512
 Alpha virt. eigenvalues --    0.54740   0.59124   0.69556   0.88432   0.91984
 Alpha virt. eigenvalues --    0.95786   0.97140   1.01563   1.02123   1.03890
 Alpha virt. eigenvalues --    1.07449   1.11416   1.11925   1.22974   1.27300
 Alpha virt. eigenvalues --    1.28280   1.30896   1.32037   1.34328   1.35607
 Alpha virt. eigenvalues --    1.39078   1.48471   1.58035   1.65073   1.73388
 Alpha virt. eigenvalues --    1.93024   2.03156   2.19289   2.58013
     Molecular Orbital Coefficients:
                           1         2         3         4         5
                           O         O         O         O         O
     Eigenvalues --   -11.19367 -11.19069 -11.18700 -11.18265 -11.16186
   1 1   C  1S         -0.02050  -0.07086   0.98459   0.01446   0.00207
   2        2S         -0.00660  -0.01027   0.09936   0.00033   0.00050
   3        2PX        -0.00080   0.00016   0.00005  -0.00016   0.00034
   4        2PY         0.00146   0.00041  -0.00219  -0.00010  -0.00005
   5        2PZ         0.00000   0.00000  -0.00000   0.00000   0.00000
   6        3S          0.04415   0.03745  -0.09234  -0.00435  -0.00176
   7        3PX         0.01119  -0.00808  -0.00170  -0.00238  -0.00037
   8        3PY        -0.02434  -0.01892   0.03417   0.00552   0.00077
   9        3PZ        -0.00001  -0.00001   0.00002   0.00000   0.00000
  10 2   C  1S          0.98692  -0.01958   0.01820   0.01325   0.00063
  11        2S          0.09945  -0.00143  -0.00248  -0.00121  -0.00050
  12        2PX        -0.00214  -0.00004   0.00125  -0.00052  -0.00008
  13        2PY        -0.00045  -0.00024  -0.00047  -0.00037  -0.00003
  14        2PZ         0.00000   0.00000  -0.00000   0.00000  -0.00000
  15        3S         -0.09019  -0.01481   0.04048   0.02769   0.00399
  16        3PX         0.03235   0.00913  -0.02218  -0.01170  -0.00428
  17        3PY        -0.00172   0.00060   0.00921  -0.00930   0.00007
  18        3PZ        -0.00002  -0.00001   0.00001   0.00001   0.00000
  19 3   C  1S         -0.01419  -0.02028  -0.01640   0.98759   0.00168
  20        2S         -0.00410  -0.00472  -0.00236   0.10441   0.00064
  21        2PX         0.00047  -0.00024  -0.00009   0.00007   0.00033
  22        2PY         0.00016   0.00009  -0.00060   0.00081   0.00001
  23        2PZ         0.00000   0.00000  -0.00000  -0.00000  -0.00000
  24        3S          0.03053   0.02864  -0.00769  -0.09614  -0.00146
  25        3PX         0.00541  -0.00754  -0.00149   0.00281  -0.00005
  26        3PY         0.01631   0.01407  -0.00495  -0.01554  -0.00011
  27        3PZ        -0.00001  -0.00001   0.00001   0.00001   0.00000
  28 4   C  1S          0.01807   0.98445   0.07013   0.02079  -0.00139
  29        2S          0.00229   0.09938   0.00401  -0.00050  -0.00450
  30        2PX        -0.00035   0.00125  -0.00043   0.00050   0.00344
  31        2PY        -0.00042  -0.00016  -0.00035   0.00065   0.00003
  32        2PZ         0.00000   0.00000   0.00000  -0.00000   0.00000
  33        3S         -0.01825  -0.08805   0.02546   0.02624   0.03102
  34        3PX        -0.00461  -0.01875   0.02016   0.01143  -0.02073
  35        3PY         0.00123  -0.00102   0.01313  -0.01645  -0.00016
  36        3PZ        -0.00001  -0.00001   0.00000   0.00000  -0.00000
  37 5   H  1S         -0.00002  -0.00011  -0.00348  -0.00065   0.00010
  38        2S          0.00542   0.00308   0.00183  -0.00131  -0.00027
  39 6   H  1S         -0.00337  -0.00013  -0.00031  -0.00074   0.00029
  40        2S          0.00261  -0.00171   0.00480   0.00159   0.00145
  41 7   H  1S         -0.00160  -0.00157  -0.00006   0.00071   0.00015
  42        2S          0.00253   0.00219  -0.00027   0.01299   0.00017
  43 8   C  1S         -0.00077   0.00105  -0.00182  -0.00147   0.98685
  44        2S         -0.00065  -0.00403  -0.00052  -0.00003   0.09667
  45        2PX         0.00003  -0.00293  -0.00058  -0.00069   0.00016
  46        2PY        -0.00002  -0.00002   0.00004  -0.00007  -0.00000
  47        2PZ        -0.00000  -0.00000   0.00000  -0.00000  -0.00000
  48        3S          0.00256   0.01372   0.00643  -0.00058  -0.07556
  49        3PX         0.00249   0.00924   0.00326   0.00043  -0.01133
  50        3PY        -0.00041   0.00030  -0.00486   0.00664   0.00002
  51        3PZ         0.00000   0.00000  -0.00000  -0.00000  -0.00000
  52 9   H  1S         -0.00023  -0.00082  -0.00071   0.00073  -0.00107
  53        2S          0.00037   0.00091  -0.00077   0.00289   0.01189
  54 10  H  1S         -0.00018  -0.00089   0.00045  -0.00076  -0.00108
  55        2S          0.00074   0.00080   0.00198  -0.00129   0.01184
  56 11  H  1S         -0.00160  -0.00157  -0.00005   0.00071   0.00015
  57        2S          0.00252   0.00219  -0.00026   0.01299   0.00017
                           6         7         8         9        10
                           O         O         O         O         O
     Eigenvalues --    -1.16949  -0.99577  -0.90034  -0.79908  -0.69729
   1 1   C  1S         -0.11862   0.04071   0.13452   0.04651  -0.08165
   2        2S          0.13138  -0.04449  -0.13733  -0.04983   0.08417
   3        2PX         0.01253  -0.07718  -0.02584   0.14469  -0.01089
   4        2PY        -0.09859   0.03345  -0.00522   0.01216   0.26194
   5        2PZ        -0.00004   0.00002   0.00003  -0.00002   0.00007
   6        3S          0.18067  -0.08846  -0.39670  -0.12005   0.31552
   7        3PX         0.00196  -0.00264  -0.00203   0.04359  -0.00891
   8        3PY        -0.02637   0.01326   0.03465  -0.00260   0.17427
   9        3PZ        -0.00002   0.00001   0.00003  -0.00000   0.00005
  10 2   C  1S         -0.11626   0.08677   0.02832  -0.13888   0.04493
  11        2S          0.12635  -0.08929  -0.02899   0.14354  -0.04577
  12        2PX        -0.09616   0.03629   0.01757   0.12267   0.05436
  13        2PY         0.01201  -0.01724  -0.14520  -0.00249   0.01939
  14        2PZ         0.00004  -0.00003  -0.00002  -0.00002   0.00000
  15        3S          0.21462  -0.22616  -0.08173   0.43706  -0.14159
  16        3PX        -0.05226   0.04603   0.00737   0.05301   0.04649
  17        3PY         0.00191  -0.00436  -0.02176  -0.00095   0.01273
  18        3PZ         0.00004  -0.00003  -0.00001  -0.00000  -0.00001
  19 3   C  1S         -0.10708   0.02272  -0.16677   0.00970  -0.06098
  20        2S          0.10538  -0.02213   0.14895  -0.01147   0.05441
  21        2PX        -0.00375  -0.05390  -0.00663   0.10179   0.01545
  22        2PY         0.07733  -0.02137  -0.03252  -0.02206  -0.19165
  23        2PZ        -0.00001   0.00000  -0.00000  -0.00003   0.00006
  24        3S          0.21606  -0.06061   0.56533  -0.00545   0.26044
  25        3PX        -0.00052  -0.00551  -0.00568   0.03683   0.00674
  26        3PY         0.00635  -0.00710   0.02351   0.00300  -0.10101
  27        3PZ        -0.00002   0.00000  -0.00001  -0.00001   0.00005
  28 4   C  1S         -0.11739  -0.11738   0.00232   0.08005   0.05607
  29        2S          0.12989   0.12815  -0.00131  -0.07803  -0.05731
  30        2PX         0.05796  -0.17493   0.01990  -0.13304  -0.04138
  31        2PY         0.00432  -0.00365  -0.12498  -0.03378   0.01999
  32        2PZ         0.00001  -0.00001   0.00000  -0.00004   0.00002
  33        3S          0.18507   0.27463  -0.01685  -0.26020  -0.17383
  34        3PX         0.08374  -0.01363   0.00857  -0.13602  -0.06744
  35        3PY         0.00544   0.00176  -0.00375  -0.01600   0.01511
  36        3PZ         0.00002  -0.00000  -0.00000  -0.00003   0.00000
  37 5   H  1S          0.03528  -0.01331  -0.09782  -0.03633   0.22367
  38        2S          0.00328  -0.00122  -0.04648  -0.01340   0.13340
  39 6   H  1S          0.03546  -0.04367  -0.01421   0.17329  -0.01552
  40        2S          0.01096  -0.02193  -0.00347   0.08953  -0.01259
  41 7   H  1S          0.03717  -0.00810   0.10824   0.00078   0.10883
  42        2S         -0.01507   0.00137   0.03099   0.00528   0.07765
  43 8   C  1S         -0.04216  -0.17211   0.01816  -0.09154  -0.01306
  44        2S          0.04535   0.18769  -0.01999   0.09539   0.01209
  45        2PX         0.04631   0.10107  -0.00294  -0.06842  -0.05896
  46        2PY         0.00049  -0.00025  -0.02735  -0.01006   0.01260
  47        2PZ         0.00001   0.00001  -0.00000  -0.00001   0.00001
  48        3S          0.13101   0.41186  -0.04138   0.23460   0.02516
  49        3PX         0.02771   0.02194   0.00323  -0.05531  -0.03987
  50        3PY        -0.00258  -0.00054  -0.03016  -0.00455   0.00612
  51        3PZ        -0.00000   0.00001   0.00000  -0.00000   0.00001
  52 9   H  1S          0.01331   0.08262  -0.00339   0.09006   0.02324
  53        2S         -0.00420   0.01090  -0.00370   0.04188   0.01657
  54 10  H  1S          0.01381   0.08241  -0.01930   0.08224   0.03557
  55        2S         -0.00194   0.01092  -0.00321   0.03610   0.02740
  56 11  H  1S          0.03716  -0.00810   0.10825   0.00079   0.10882
  57        2S         -0.01509   0.00137   0.03100   0.00529   0.07765
                          11        12        13        14        15
                           O         O         O         O         O
     Eigenvalues --    -0.66459  -0.60474  -0.59822  -0.53705  -0.48801
   1 1   C  1S          0.02036   0.01368  -0.00000  -0.01154   0.00601
   2        2S         -0.02358  -0.01589   0.00000   0.01487  -0.00533
   3        2PX        -0.05544  -0.16716   0.00014   0.26313  -0.00069
   4        2PY         0.09458  -0.03803  -0.00006  -0.12149   0.09756
   5        2PZ         0.00001   0.00007   0.09447  -0.00012   0.00008
   6        3S         -0.02230  -0.03222   0.00003   0.06185  -0.07287
   7        3PX        -0.01950  -0.10345   0.00010   0.16219  -0.00061
   8        3PY         0.04395  -0.04166  -0.00007  -0.13049   0.12654
   9        3PZ        -0.00000   0.00005   0.08456  -0.00009   0.00009
  10 2   C  1S         -0.02910  -0.00089  -0.00000  -0.01606  -0.02853
  11        2S          0.03088  -0.00296   0.00001   0.02168   0.01894
  12        2PX         0.22171   0.04062   0.00006  -0.18970  -0.19879
  13        2PY        -0.02525  -0.13979   0.00013   0.21972  -0.23567
  14        2PZ        -0.00010   0.00004   0.11713   0.00009   0.00013
  15        3S          0.09809   0.00318  -0.00002   0.02624   0.16722
  16        3PX         0.18101   0.03304   0.00008  -0.15761  -0.25827
  17        3PY        -0.01320  -0.08767   0.00008   0.14340  -0.18656
  18        3PZ        -0.00008   0.00003   0.08687   0.00005   0.00014
  19 3   C  1S          0.01504  -0.00863   0.00001  -0.00092  -0.00835
  20        2S         -0.01430   0.00549  -0.00001   0.00113   0.00600
  21        2PX        -0.01996   0.12785  -0.00005   0.01430   0.28775
  22        2PY        -0.04338  -0.01506   0.00005  -0.15841   0.12354
  23        2PZ        -0.00005   0.00020   0.33577   0.00001  -0.00005
  24        3S         -0.03006   0.03933  -0.00001   0.01917   0.03192
  25        3PX        -0.00486   0.09178  -0.00003   0.01170   0.22129
  26        3PY        -0.01209  -0.00768   0.00008  -0.12292   0.10675
  27        3PZ        -0.00005   0.00018   0.30620   0.00000  -0.00002
  28 4   C  1S         -0.08083   0.00186  -0.00001   0.02268   0.03071
  29        2S          0.08875  -0.00149   0.00002  -0.01328  -0.02051
  30        2PX        -0.16655   0.03847  -0.00009  -0.21758  -0.19773
  31        2PY         0.00274   0.20298  -0.00011  -0.00639   0.05147
  32        2PZ        -0.00003   0.00009   0.12271  -0.00009  -0.00005
  33        3S          0.28001  -0.01074   0.00003  -0.11791  -0.13634
  34        3PX        -0.11506   0.01781  -0.00011  -0.24560  -0.19574
  35        3PY         0.00148   0.12973  -0.00007  -0.02909   0.07394
  36        3PZ        -0.00002   0.00006   0.08588  -0.00009  -0.00004
  37 5   H  1S          0.03398  -0.03449  -0.00003  -0.08260   0.07284
  38        2S          0.02724  -0.01902  -0.00002  -0.06164   0.05626
  39 6   H  1S          0.15943   0.02598   0.00002  -0.11913  -0.13067
  40        2S          0.09665   0.01898   0.00001  -0.10013  -0.09692
  41 7   H  1S          0.00290   0.01462   0.18075   0.06625  -0.04128
  42        2S          0.00674   0.01017   0.13579   0.06421  -0.04639
  43 8   C  1S          0.05182  -0.00109   0.00000  -0.01381  -0.02024
  44        2S         -0.04080  -0.00036   0.00000   0.02364   0.02838
  45        2PX         0.29384  -0.03962   0.00009   0.17109   0.14617
  46        2PY         0.00545   0.30004  -0.00018   0.12786  -0.08593
  47        2PZ         0.00003   0.00005   0.05773  -0.00001  -0.00001
  48        3S         -0.25451   0.01004  -0.00006  -0.04977   0.00890
  49        3PX         0.14302  -0.02334   0.00003   0.07399   0.07621
  50        3PY         0.00445   0.22600  -0.00014   0.12149  -0.09758
  51        3PZ         0.00001   0.00004   0.05388  -0.00001  -0.00001
  52 9   H  1S         -0.13862  -0.15022   0.00006  -0.12697   0.02171
  53        2S         -0.10539  -0.12085   0.00005  -0.12037  -0.00024
  54 10  H  1S         -0.13404   0.17840  -0.00013   0.02844  -0.09428
  55        2S         -0.10235   0.14617  -0.00011   0.00691  -0.09686
  56 11  H  1S          0.00297   0.01439  -0.18074   0.06628  -0.04131
  57        2S          0.00678   0.01000  -0.13578   0.06424  -0.04641
                          16        17        18        19        20
                           O         O         O         V         V
     Eigenvalues --    -0.45471  -0.41100  -0.31984   0.13475   0.24052
   1 1   C  1S         -0.03800  -0.00004   0.00002   0.00002  -0.00002
   2        2S          0.03469   0.00003  -0.00002  -0.00000   0.00002
   3        2PX        -0.14357   0.00003  -0.00001  -0.00002   0.00003
   4        2PY        -0.20293  -0.00017   0.00009   0.00005  -0.00005
   5        2PZ        -0.00014   0.23138  -0.21093  -0.20958   0.23612
   6        3S          0.21577   0.00024  -0.00022  -0.00030  -0.00009
   7        3PX        -0.08635   0.00005  -0.00004  -0.00008   0.00009
   8        3PY        -0.26107  -0.00027   0.00022   0.00021   0.00019
   9        3PZ        -0.00016   0.25112  -0.27300  -0.44798   0.59062
  10 2   C  1S          0.00685   0.00000  -0.00004   0.00003   0.00000
  11        2S         -0.00544   0.00000   0.00003  -0.00003  -0.00005
  12        2PX         0.03139   0.00004  -0.00016   0.00012  -0.00003
  13        2PY         0.04999   0.00003  -0.00000  -0.00001  -0.00002
  14        2PZ        -0.00008   0.14866  -0.25711   0.29333  -0.11460
  15        3S         -0.08694  -0.00011   0.00027  -0.00014   0.00028
  16        3PX         0.08049   0.00013  -0.00028   0.00008  -0.00042
  17        3PY         0.00901   0.00001   0.00001  -0.00001  -0.00006
  18        3PZ        -0.00010   0.17575  -0.32609   0.62362  -0.25597
  19 3   C  1S          0.03047   0.00002  -0.00001  -0.00002   0.00009
  20        2S         -0.02812  -0.00002   0.00002   0.00002  -0.00002
  21        2PX         0.12280   0.00001   0.00004   0.00001  -0.00001
  22        2PY        -0.23933  -0.00012   0.00004   0.00002  -0.00004
  23        2PZ         0.00006  -0.16673   0.02347  -0.01044  -0.08595
  24        3S         -0.09872  -0.00002  -0.00004   0.00008  -0.00114
  25        3PX         0.08869  -0.00001   0.00005   0.00003  -0.00008
  26        3PY        -0.21271  -0.00007  -0.00005  -0.00012  -0.00014
  27        3PZ         0.00005  -0.17291  -0.00448  -0.03440  -0.49694
  28 4   C  1S          0.00123   0.00001   0.00002  -0.00003  -0.00001
  29        2S          0.00079   0.00000  -0.00002   0.00003  -0.00002
  30        2PX         0.00507  -0.00004  -0.00008   0.00009   0.00003
  31        2PY         0.27763   0.00006  -0.00003   0.00002  -0.00002
  32        2PZ        -0.00004   0.23135   0.19342  -0.17070  -0.27678
  33        3S         -0.01915  -0.00009  -0.00005   0.00025   0.00031
  34        3PX        -0.05506  -0.00014   0.00004   0.00020   0.00038
  35        3PY         0.26546   0.00007  -0.00005   0.00003  -0.00000
  36        3PZ        -0.00005   0.26555   0.24279  -0.34353  -0.59392
  37 5   H  1S         -0.11884  -0.00007   0.00002   0.00002  -0.00002
  38        2S         -0.10273  -0.00004  -0.00001   0.00003  -0.00023
  39 6   H  1S          0.01948  -0.00000  -0.00005   0.00003   0.00001
  40        2S          0.00612  -0.00002  -0.00003   0.00020   0.00023
  41 7   H  1S          0.08132  -0.12788   0.02555  -0.02001   0.08998
  42        2S          0.10507  -0.14788   0.05643  -0.01641   0.64664
  43 8   C  1S          0.00135  -0.00000  -0.00001   0.00002  -0.00000
  44        2S         -0.00039   0.00001   0.00001  -0.00002  -0.00001
  45        2PX        -0.00660   0.00000   0.00001  -0.00005  -0.00002
  46        2PY        -0.16156  -0.00003  -0.00002  -0.00001  -0.00002
  47        2PZ        -0.00005   0.19249   0.26713   0.22156   0.16967
  48        3S         -0.03907  -0.00005   0.00009  -0.00008   0.00018
  49        3PX        -0.02130  -0.00003   0.00003  -0.00003  -0.00002
  50        3PY        -0.20223  -0.00005  -0.00001  -0.00000  -0.00013
  51        3PZ        -0.00005   0.20110   0.33343   0.47242   0.50468
  52 9   H  1S          0.12409   0.00001  -0.00000   0.00001  -0.00001
  53        2S          0.11792   0.00001  -0.00001   0.00009  -0.00014
  54 10  H  1S         -0.12061  -0.00002  -0.00000  -0.00000   0.00002
  55        2S         -0.11536  -0.00002  -0.00001   0.00004   0.00007
  56 11  H  1S          0.08131   0.12791  -0.02556   0.02000  -0.08992
  57        2S          0.10505   0.14796  -0.05649   0.01616  -0.64565
                          21        22        23        24        25
                           V         V         V         V         V
     Eigenvalues --     0.29864   0.30427   0.31177   0.33199   0.34917
   1 1   C  1S          0.00150  -0.00630  -0.10934   0.00195   0.05967
   2        2S          0.02563   0.01059   0.06452   0.02848  -0.03670
   3        2PX         0.05204   0.00161  -0.07374   0.02491  -0.07077
   4        2PY         0.01016   0.09793   0.04595  -0.13191  -0.20237
   5        2PZ         0.00001   0.00013  -0.00004   0.00005   0.00002
   6        3S         -0.26001   0.10742   1.25895  -0.48253  -0.59762
   7        3PX         0.43454  -0.07942  -0.13926  -0.02625  -0.17499
   8        3PY         0.23166   0.49096   0.36975  -0.17781  -1.34035
   9        3PZ         0.00008   0.00037  -0.00013   0.00017  -0.00016
  10 2   C  1S          0.10036  -0.03072  -0.00447   0.06639  -0.07208
  11        2S         -0.04328   0.02345  -0.00765  -0.02610   0.06861
  12        2PX        -0.02159   0.09211   0.05318  -0.16626   0.02712
  13        2PY         0.06312   0.02393  -0.06252   0.02600   0.00044
  14        2PZ        -0.00004  -0.00007  -0.00000  -0.00003   0.00001
  15        3S         -1.19794   0.58053   0.26385  -0.77396   0.47723
  16        3PX        -0.25957   0.27123   0.07248  -0.89848   0.56230
  17        3PY         0.24641   0.24696  -0.38590   0.07705  -0.06502
  18        3PZ        -0.00010  -0.00011   0.00006   0.00009  -0.00012
  19 3   C  1S         -0.04940  -0.14105   0.02647  -0.05667  -0.00659
  20        2S          0.03784   0.04779  -0.00616   0.02642  -0.02388
  21        2PX         0.08325  -0.04236   0.05088   0.08022  -0.04973
  22        2PY         0.01602  -0.09327  -0.11874  -0.09318  -0.15111
  23        2PZ        -0.00002  -0.00006   0.00000   0.00001   0.00001
  24        3S          0.41895   1.82334  -0.32341   0.64028   0.51677
  25        3PX         0.55719  -0.15154   0.17426   0.20422  -0.23687
  26        3PY        -0.04498  -0.39579  -0.55433  -0.69949  -0.38584
  27        3PZ        -0.00008  -0.00032   0.00013   0.00006  -0.00015
  28 4   C  1S         -0.03423   0.01114  -0.00149   0.00475   0.01364
  29        2S          0.00397   0.00746  -0.01059   0.01040   0.02073
  30        2PX         0.07258  -0.02980  -0.00556  -0.03158   0.03199
  31        2PY         0.01376   0.08575  -0.17082  -0.03332   0.00400
  32        2PZ         0.00001  -0.00008   0.00001  -0.00004  -0.00004
  33        3S          0.74359  -0.05833   0.24045  -0.10054  -0.43989
  34        3PX         0.39270  -0.03345   0.14246   0.13665  -0.30814
  35        3PY         0.07790   0.27199  -0.44443  -0.03847   0.05360
  36        3PZ         0.00014  -0.00017   0.00005   0.00001  -0.00016
  37 5   H  1S          0.01602  -0.03809  -0.02048  -0.00614   0.02749
  38        2S         -0.10398  -0.66047  -1.06790   0.48154   1.73050
  39 6   H  1S          0.02144  -0.00884  -0.00903   0.03049   0.01420
  40        2S          0.87226  -0.63897  -0.24079   1.40845  -0.82426
  41 7   H  1S          0.01864  -0.01637  -0.02588  -0.01425   0.00099
  42        2S         -0.22708  -1.04630  -0.26471  -0.69841  -0.40422
  43 8   C  1S         -0.10253   0.00779  -0.01577   0.05779  -0.05450
  44        2S          0.05139  -0.00282   0.00325  -0.01203   0.02160
  45        2PX        -0.10323  -0.00808  -0.03948   0.12060  -0.06870
  46        2PY         0.01263   0.08336  -0.17408  -0.07417  -0.08707
  47        2PZ         0.00000   0.00003  -0.00002   0.00001  -0.00000
  48        3S          1.37484  -0.06538   0.28627  -0.72467   0.58427
  49        3PX        -0.61480  -0.02262  -0.15342   0.51872  -0.30309
  50        3PY         0.06772   0.36539  -0.74583  -0.30674  -0.41133
  51        3PZ        -0.00006   0.00014  -0.00009   0.00002   0.00004
  52 9   H  1S         -0.00804   0.04177  -0.06616   0.01040  -0.01708
  53        2S         -0.88715   0.45873  -1.08475   0.33247  -0.91284
  54 10  H  1S         -0.03163  -0.03220   0.06089   0.02229  -0.01039
  55        2S         -1.06388  -0.41877   0.66329   0.99773  -0.08376
  56 11  H  1S          0.01865  -0.01645  -0.02588  -0.01429   0.00100
  57        2S         -0.22709  -1.04723  -0.26479  -0.69857  -0.40470
                          26        27        28        29        30
                           V         V         V         V         V
     Eigenvalues --     0.36154   0.38713   0.43512   0.54740   0.59124
   1 1   C  1S          0.05012   0.00000   0.05107   0.02062  -0.00938
   2        2S         -0.04834  -0.00002  -0.00239  -0.01079   0.04100
   3        2PX         0.06890   0.00001  -0.13431   0.15505   0.02937
   4        2PY         0.01618   0.00001   0.07730   0.04996  -0.03539
   5        2PZ         0.00002   0.09425   0.00004  -0.00001  -0.00001
   6        3S         -0.25101   0.00028  -1.07056  -0.05023  -0.51801
   7        3PX         0.58896   0.00015  -0.83592   1.74948   0.55335
   8        3PY        -0.32470  -0.00014   0.66239   0.06294   0.66287
   9        3PZ        -0.00009   0.36469   0.00047  -0.00021  -0.00003
  10 2   C  1S          0.03814   0.00000  -0.01044   0.01719   0.03495
  11        2S         -0.00196  -0.00001  -0.00569  -0.00084  -0.02144
  12        2PX         0.19146   0.00008  -0.00796  -0.00430   0.10950
  13        2PY         0.11568   0.00002   0.14620  -0.21766  -0.04609
  14        2PZ        -0.00007  -0.06374   0.00002   0.00000  -0.00009
  15        3S         -0.70880  -0.00001   0.40939  -0.73214   0.06939
  16        3PX         1.22885   0.00032  -0.26273   0.21646   0.44592
  17        3PY         0.46821   0.00002   1.34758  -1.11610  -0.27222
  18        3PZ        -0.00050  -0.48622   0.00024  -0.00029   0.00004
  19 3   C  1S         -0.00525  -0.00003  -0.08897  -0.02221  -0.00552
  20        2S         -0.02828  -0.00000   0.00694  -0.01712   0.03576
  21        2PX         0.19487   0.00006   0.04595  -0.14414  -0.00464
  22        2PY        -0.00181   0.00002   0.14684  -0.00669   0.07725
  23        2PZ        -0.00007   0.33228  -0.00004   0.00003  -0.00003
  24        3S          0.40539   0.00049   1.35303   0.56894  -0.56612
  25        3PX         0.98752   0.00029  -0.08010  -1.14999  -0.03629
  26        3PY         0.30442   0.00033   1.14021   0.33559  -0.56361
  27        3PZ        -0.00049   1.49359  -0.00037   0.00006  -0.00004
  28 4   C  1S         -0.12502  -0.00001   0.07114  -0.03524   0.07840
  29        2S          0.05998   0.00000  -0.02312   0.01237  -0.03239
  30        2PX         0.11894   0.00002  -0.06110  -0.03628   0.27494
  31        2PY        -0.02149   0.00000   0.07722   0.33909   0.05831
  32        2PZ         0.00006  -0.16315  -0.00003   0.00003   0.00003
  33        3S          1.41653   0.00009  -1.08105   0.87031  -2.52519
  34        3PX         0.22375   0.00003  -0.36169  -0.46341   3.57277
  35        3PY         0.04014  -0.00000   0.74124   1.89370   0.32310
  36        3PZ         0.00020  -0.65169  -0.00012   0.00013   0.00046
  37 5   H  1S         -0.02752  -0.00000  -0.04053  -0.01713   0.01670
  38        2S          0.44763  -0.00003  -0.32398   0.00119  -0.31975
  39 6   H  1S         -0.04292   0.00000   0.01990  -0.03331   0.06748
  40        2S         -1.03491  -0.00048   0.10647   0.07884  -0.46603
  41 7   H  1S         -0.00173   0.02133   0.06138   0.01891  -0.00270
  42        2S          0.02612  -1.38009   0.19912   0.02570  -0.08837
  43 8   C  1S          0.07016   0.00000  -0.02092   0.02608  -0.10935
  44        2S         -0.02658   0.00000   0.00747   0.01199  -0.03887
  45        2PX         0.01090   0.00000   0.01392   0.01114   0.02974
  46        2PY        -0.06775  -0.00001  -0.20507  -0.12266  -0.00919
  47        2PZ        -0.00001   0.08980  -0.00000  -0.00000   0.00001
  48        3S         -0.89106  -0.00006   0.17541  -0.67560   3.43496
  49        3PX        -0.10537  -0.00005   0.15166  -0.55526   3.13000
  50        3PY        -0.26598  -0.00006  -0.96852  -1.27160  -0.18748
  51        3PZ        -0.00010   0.35649   0.00001  -0.00015   0.00023
  52 9   H  1S          0.02038  -0.00001   0.05854   0.06636   0.09452
  53        2S          0.13069  -0.00003  -0.90298  -0.92959   0.24447
  54 10  H  1S          0.00812   0.00001  -0.05964  -0.08567   0.08030
  55        2S          0.67315   0.00006   0.81581   0.89240   0.50697
  56 11  H  1S         -0.00173  -0.02132   0.06140   0.01890  -0.00271
  57        2S          0.02559   1.37964   0.19908   0.02572  -0.08855
                          31        32        33        34        35
                           V         V         V         V         V
     Eigenvalues --     0.69556   0.88432   0.91984   0.95786   0.97140
   1 1   C  1S         -0.15084   0.00409   0.01624  -0.03293   0.00003
   2        2S          0.00288  -0.02752   0.15669  -0.21138   0.00021
   3        2PX        -0.03459   0.68773  -0.14787  -0.26287   0.00004
   4        2PY        -0.18199  -0.00026   0.05534  -0.16178  -0.00007
   5        2PZ        -0.00003  -0.00004  -0.00013   0.00029   0.51750
   6        3S          4.15651   0.75454  -1.23640   0.51939  -0.00059
   7        3PX         0.46724  -0.63600  -0.03418   0.18677  -0.00014
   8        3PY        -3.30281  -0.22757   0.65338   0.03985   0.00038
   9        3PZ        -0.00129  -0.00004   0.00034  -0.00031  -0.39487
  10 2   C  1S          0.13242   0.02678  -0.03368  -0.00590  -0.00002
  11        2S          0.02429   0.05935   0.07031  -0.19777   0.00013
  12        2PX         0.14048  -0.06099   0.07406  -0.14666   0.00015
  13        2PY         0.07315   0.41297   0.17165  -0.34001   0.00011
  14        2PZ        -0.00001   0.00017  -0.00026   0.00014   0.41751
  15        3S         -3.85757  -0.29446   0.71655  -0.17415   0.00007
  16        3PX         3.00288   0.47547  -0.73496   0.60053  -0.00046
  17        3PY        -0.53413  -0.53126  -0.00760   0.35708   0.00003
  18        3PZ        -0.00150  -0.00035   0.00057  -0.00024  -0.19212
  19 3   C  1S         -0.09679  -0.00839   0.01226   0.00663   0.00002
  20        2S         -0.03007   0.00233   0.14112  -0.08705   0.00002
  21        2PX        -0.03845  -0.26943  -0.59969  -0.46521   0.00003
  22        2PY        -0.06449  -0.02423   0.15451   0.00780  -0.00021
  23        2PZ        -0.00012   0.00007  -0.00001   0.00010   0.14145
  24        3S          2.56201   0.15334  -1.15045   0.47860  -0.00037
  25        3PX        -0.07766   0.25228   0.70607   0.49680  -0.00002
  26        3PY         2.44035   0.31104  -0.96286   0.11067   0.00019
  27        3PZ        -0.00063  -0.00008   0.00021  -0.00015  -0.31371
  28 4   C  1S          0.11358  -0.01922   0.02412   0.03398  -0.00001
  29        2S          0.01068  -0.05926   0.16737  -0.14831   0.00013
  30        2PX        -0.14372   0.12219  -0.24820  -0.00234  -0.00005
  31        2PY        -0.00733  -0.18876  -0.05914  -0.35035   0.00009
  32        2PZ        -0.00012  -0.00002  -0.00009   0.00018   0.54180
  33        3S         -2.34723  -0.31072   0.61932   0.13940  -0.00014
  34        3PX        -2.90694  -0.51762   1.78592  -0.23516   0.00049
  35        3PY        -0.24322  -0.07514  -0.16441   0.09717  -0.00008
  36        3PZ        -0.00053  -0.00009   0.00025  -0.00012  -0.21728
  37 5   H  1S         -0.11808  -0.03314   0.31376  -0.58594   0.00045
  38        2S          1.29840  -0.00644  -0.37313   0.29774  -0.00040
  39 6   H  1S          0.12826   0.06169   0.08252  -0.52673   0.00019
  40        2S         -1.12406  -0.22476   0.14234   0.05268   0.00009
  41 7   H  1S          0.10936  -0.01206   0.05655  -0.09830   0.23566
  42        2S          0.26184   0.06031  -0.14373   0.04859  -0.00392
  43 8   C  1S         -0.00652   0.00565  -0.01378  -0.00783  -0.00000
  44        2S          0.09131  -0.09077   0.19749   0.01429   0.00005
  45        2PX         0.17066  -0.27167   0.62677  -0.06216   0.00012
  46        2PY         0.05067  -0.28672  -0.14852  -0.12616  -0.00000
  47        2PZ         0.00009  -0.00006   0.00003   0.00024   0.56373
  48        3S         -1.42857  -0.18954   0.87014  -0.18185   0.00030
  49        3PX        -0.74855   0.19117  -0.18788   0.05801   0.00008
  50        3PY         0.12405   0.53380   0.31090   0.33358  -0.00003
  51        3PZ         0.00005   0.00007  -0.00001  -0.00017  -0.48353
  52 9   H  1S         -0.04917   0.25116   0.11016   0.10762   0.00001
  53        2S          0.13373   0.03939   0.00778   0.13362  -0.00002
  54 10  H  1S          0.03151  -0.22590  -0.11480  -0.10905   0.00007
  55        2S         -0.11869  -0.02088  -0.05628  -0.07550   0.00000
  56 11  H  1S          0.10949  -0.01215   0.05675  -0.09847  -0.23522
  57        2S          0.26129   0.06036  -0.14374   0.04867   0.00392
                          36        37        38        39        40
                           V         V         V         V         V
     Eigenvalues --     1.01563   1.02123   1.03890   1.07449   1.11416
   1 1   C  1S          0.03091   0.00001   0.05136  -0.00002   0.00000
   2        2S          0.02471   0.00006  -0.03684   0.00006   0.00008
   3        2PX        -0.01188  -0.00008  -0.26287  -0.00004   0.00000
   4        2PY         0.00947  -0.00005   0.04692  -0.00018  -0.00030
   5        2PZ        -0.00042   0.19112  -0.00046  -0.92434   0.19863
   6        3S         -0.42851  -0.00020   0.86061  -0.00109  -0.00003
   7        3PX        -0.04206   0.00009   0.11356   0.00022  -0.00003
   8        3PY         0.44002   0.00016  -0.36365   0.00125   0.00077
   9        3PZ         0.00046  -0.07480   0.00038   1.08609  -0.17623
  10 2   C  1S         -0.04215  -0.00000  -0.02809   0.00004   0.00000
  11        2S          0.12543  -0.00002  -0.07909  -0.00004  -0.00008
  12        2PX        -0.09873   0.00023  -0.26275   0.00031   0.00001
  13        2PY        -0.25995  -0.00009   0.53638  -0.00014   0.00021
  14        2PZ        -0.00001   0.83181   0.00023   0.31156  -0.45872
  15        3S         -0.18665   0.00008  -0.49751   0.00104   0.00023
  16        3PX        -0.04600  -0.00024   0.97308  -0.00109  -0.00022
  17        3PY         0.35935   0.00016  -0.37164   0.00007  -0.00028
  18        3PZ         0.00005  -0.78917  -0.00053  -0.36805   0.67113
  19 3   C  1S          0.05935   0.00001  -0.03629   0.00000  -0.00000
  20        2S         -0.12995   0.00000  -0.06008   0.00011   0.00001
  21        2PX        -0.05672  -0.00008  -0.29773   0.00017   0.00002
  22        2PY        -0.84537   0.00008  -0.24563   0.00029  -0.00013
  23        2PZ         0.00015  -0.03297   0.00022   0.21332   0.23058
  24        3S         -0.01656  -0.00007   0.48440  -0.00052  -0.00003
  25        3PX         0.07871   0.00021   0.28316  -0.00030  -0.00027
  26        3PY         1.29796  -0.00022   0.89495  -0.00098   0.00043
  27        3PZ        -0.00016   0.12731  -0.00052  -0.48041  -0.46237
  28 4   C  1S         -0.04068   0.00001   0.00458   0.00003   0.00005
  29        2S          0.15340   0.00004  -0.03612  -0.00011  -0.00017
  30        2PX         0.06859   0.00001   0.09315  -0.00007   0.00044
  31        2PY        -0.22943   0.00001   0.49282  -0.00027  -0.00001
  32        2PZ        -0.00002  -0.16945   0.00008   0.31586   0.66249
  33        3S         -0.40185   0.00006  -0.31656   0.00084   0.00016
  34        3PX         0.19858   0.00044  -0.76333   0.00105  -0.00055
  35        3PY         0.18179  -0.00004  -0.42061   0.00060   0.00017
  36        3PZ        -0.00003   0.13066  -0.00024  -0.40108  -0.74831
  37 5   H  1S          0.24212   0.00008   0.28218  -0.00041  -0.00004
  38        2S         -0.41064  -0.00011  -0.13275  -0.00028  -0.00038
  39 6   H  1S         -0.02186  -0.00007  -0.55568   0.00033  -0.00004
  40        2S          0.11995   0.00003  -0.03954   0.00008   0.00020
  41 7   H  1S          0.39152   0.08075  -0.12689   0.28362   0.19736
  42        2S          0.13166  -0.08161   0.18243   0.02358   0.01695
  43 8   C  1S          0.01075  -0.00001   0.00565  -0.00002  -0.00008
  44        2S          0.03144   0.00007   0.00445  -0.00001  -0.00019
  45        2PX        -0.00850   0.00026  -0.16211   0.00020   0.00032
  46        2PY        -0.03616   0.00003   0.13567   0.00002   0.00007
  47        2PZ        -0.00022  -0.65966  -0.00002   0.04967  -0.67596
  48        3S          0.11181   0.00027  -0.50055   0.00060   0.00017
  49        3PX         0.32536  -0.00006   0.14342  -0.00011  -0.00062
  50        3PY         0.14589  -0.00002  -0.28616  -0.00015  -0.00013
  51        3PZ         0.00024   0.55746   0.00005   0.03124   0.81880
  52 9   H  1S          0.20815  -0.00000  -0.04426  -0.00014  -0.00069
  53        2S          0.09047  -0.00001  -0.01878  -0.00006   0.00018
  54 10  H  1S          0.11327   0.00001   0.23881  -0.00021  -0.00069
  55        2S         -0.05769  -0.00002   0.10481   0.00007   0.00024
  56 11  H  1S          0.39167  -0.08070  -0.12723  -0.28364  -0.19716
  57        2S          0.13172   0.08149   0.18235  -0.02392  -0.01676
                          41        42        43        44        45
                           V         V         V         V         V
     Eigenvalues --     1.11925   1.22974   1.27300   1.28280   1.30896
   1 1   C  1S         -0.01801   0.01485  -0.00026   0.04212   0.01597
   2        2S          0.02397  -0.01343  -0.00120   0.12680  -0.10397
   3        2PX        -0.02198  -0.45338   0.00093  -0.18432   0.07998
   4        2PY        -0.00981  -0.14578   0.00560  -0.76897  -0.50757
   5        2PZ         0.00009   0.00014  -0.11451  -0.00070   0.00001
   6        3S          0.00272  -0.30920   0.00216  -0.19831  -0.89872
   7        3PX         0.05601   1.30512  -0.00228   0.44169  -0.31897
   8        3PY        -0.15307   0.69006  -0.01364   1.80350   1.78965
   9        3PZ        -0.00008  -0.00024   0.46383   0.00289   0.00021
  10 2   C  1S          0.01934  -0.02069  -0.00023   0.03957   0.01742
  11        2S          0.04429  -0.07505  -0.00124   0.13320  -0.15163
  12        2PX        -0.09905   0.19673   0.00422  -0.66990   0.37000
  13        2PY        -0.03520   0.58950   0.00024  -0.03497  -0.14619
  14        2PZ        -0.00032  -0.00005   0.07866   0.00043  -0.00007
  15        3S         -0.15319   0.35114  -0.00314   0.38767   0.87434
  16        3PX         0.35452  -0.57866  -0.00670   1.15046  -1.27518
  17        3PY         0.03073  -1.49236  -0.00032   0.02270   0.44503
  18        3PZ         0.00044   0.00025  -0.62334  -0.00396   0.00068
  19 3   C  1S         -0.00925  -0.00383  -0.00008   0.00580  -0.06426
  20        2S          0.03814   0.01926   0.00035  -0.05044   0.22239
  21        2PX        -0.02821   0.50257   0.00017  -0.03141   0.05744
  22        2PY         0.20179  -0.01354  -0.00188   0.19983  -0.52019
  23        2PZ         0.00021   0.00006  -1.07231  -0.00764   0.00062
  24        3S         -0.07442  -0.30570  -0.00130   0.23449  -1.05998
  25        3PX         0.10639  -1.44352  -0.00066   0.12626   0.14166
  26        3PY        -0.29840  -0.14332   0.00066  -0.00919   0.24822
  27        3PZ        -0.00045  -0.00002   2.39506   0.01602  -0.00083
  28 4   C  1S         -0.04228   0.00332   0.00007  -0.00988   0.01540
  29        2S          0.16209   0.06543  -0.00001  -0.04909  -0.19460
  30        2PX        -0.59831  -0.00269   0.00049  -0.12653  -0.23036
  31        2PY         0.01192  -0.52498   0.00023  -0.06392   0.09932
  32        2PZ         0.00062  -0.00019   0.44691   0.00225  -0.00012
  33        3S         -0.01673   0.24168  -0.00488   0.68907   0.53407
  34        3PX         0.66679   0.16978  -0.00801   1.24266   1.00192
  35        3PY        -0.05709   1.54220  -0.00229   0.36135  -0.35221
  36        3PZ        -0.00073   0.00048  -1.19741  -0.00675   0.00054
  37 5   H  1S         -0.07524   0.03137  -0.00231   0.40342   0.21499
  38        2S          0.17820  -0.31882   0.00926  -1.32614  -1.03645
  39 6   H  1S          0.16163  -0.26257  -0.00245   0.41615   0.12028
  40        2S         -0.30084   0.45957   0.00654  -1.10307   0.45517
  41 7   H  1S         -0.01507  -0.01409  -0.00873   0.09095  -0.60343
  42        2S         -0.05311   0.02485  -1.02209  -0.08770   0.64110
  43 8   C  1S          0.08736   0.00578   0.00003  -0.00594   0.00292
  44        2S          0.19431   0.05524   0.00062  -0.10199   0.00749
  45        2PX        -0.32794   0.09085   0.00107  -0.20477   0.05473
  46        2PY         0.00300   0.15312  -0.00080   0.11077  -0.28065
  47        2PZ        -0.00065   0.00006  -0.04893  -0.00021   0.00000
  48        3S         -0.21819   0.02163  -0.00433   0.66051   0.51641
  49        3PX         0.52296  -0.08350  -0.00278   0.48002   0.12219
  50        3PY        -0.00665  -0.42442   0.00186  -0.22552   0.68705
  51        3PZ         0.00081  -0.00019   0.39808   0.00228  -0.00011
  52 9   H  1S          0.69196   0.43844   0.00086  -0.10583   0.03042
  53        2S         -0.22958  -0.52469  -0.00002   0.02571   0.27238
  54 10  H  1S          0.72485  -0.24005   0.00152  -0.30302   0.01104
  55        2S         -0.24142   0.34310  -0.00218   0.38387  -0.35353
  56 11  H  1S         -0.01550  -0.01406   0.00642   0.08920  -0.60291
  57        2S         -0.05316   0.02468   1.02377  -0.07210   0.64004
                          46        47        48        49        50
                           V         V         V         V         V
     Eigenvalues --     1.32037   1.34328   1.35607   1.39078   1.48471
   1 1   C  1S          0.01262  -0.00110  -0.00006   0.01857   0.05792
   2        2S         -0.08505  -0.03136   0.00031  -0.00726  -0.50338
   3        2PX         0.11396  -0.36016  -0.00041   0.28144  -0.09979
   4        2PY        -0.63647   0.38326   0.00239  -0.14322  -0.04662
   5        2PZ        -0.00002  -0.00012   0.09962  -0.00015   0.00021
   6        3S         -0.18888   0.94300   0.00174   0.58282  -1.36863
   7        3PX        -0.25430   0.77422   0.00059  -0.61999   0.60682
   8        3PY         1.78240  -1.39940  -0.00641   0.25605   2.80994
   9        3PZ        -0.00002   0.00038  -0.46716   0.00078   0.00039
  10 2   C  1S         -0.01765   0.00584  -0.00001   0.01510  -0.02370
  11        2S          0.08607  -0.06900  -0.00026  -0.13677   0.15094
  12        2PX         0.47211  -0.44966  -0.00135  -0.49236  -0.05864
  13        2PY         0.07111   0.14818   0.00008  -0.05751   0.44946
  14        2PZ        -0.00048   0.00059  -0.22954   0.00033   0.00012
  15        3S          0.85542  -0.67067  -0.00229   0.65232   1.14472
  16        3PX        -1.37697   1.33421   0.00394   1.14174  -1.71134
  17        3PY        -0.24625  -0.58616  -0.00027   0.16589  -0.81855
  18        3PZ         0.00080  -0.00134   0.53347  -0.00103   0.00052
  19 3   C  1S          0.02456   0.00327  -0.00006  -0.00601   0.01194
  20        2S         -0.01917   0.04512   0.00035  -0.00249   0.10919
  21        2PX         0.05808   0.23897   0.00061   0.23482  -0.16771
  22        2PY         0.30355  -0.04052  -0.00117  -0.00889  -0.25590
  23        2PZ        -0.00158   0.00110  -0.34530   0.00005  -0.00016
  24        3S         -0.46648   0.03315   0.00041   0.58756  -1.37502
  25        3PX        -0.19769  -0.43064  -0.00096  -0.40696  -0.19445
  26        3PY        -0.42122   0.07245   0.00151   0.40683  -0.41330
  27        3PZ         0.00198  -0.00048  -0.29386   0.00116   0.00086
  28 4   C  1S          0.00218  -0.00551   0.00001   0.02008  -0.01792
  29        2S          0.13701  -0.01320   0.00018   0.18376  -0.07167
  30        2PX         0.09053  -0.01641   0.00065   0.57687  -0.09202
  31        2PY         0.10800  -0.07139  -0.00008   0.04358  -0.13117
  32        2PZ        -0.00049   0.00079  -0.44331   0.00073  -0.00009
  33        3S          0.51738  -0.40271  -0.00230  -0.12573   1.12347
  34        3PX        -0.04917  -0.08841  -0.00209  -0.85939   2.03656
  35        3PY        -0.26493  -0.17791  -0.00059  -0.00834   1.22963
  36        3PZ         0.00065  -0.00151   0.89460  -0.00176   0.00053
  37 5   H  1S          0.05993   0.00273  -0.00090  -0.14471  -0.68526
  38        2S         -1.02372   0.65068   0.00413  -0.19369  -0.90764
  39 6   H  1S         -0.42445   0.20264   0.00073  -0.02142   0.56695
  40        2S          0.95361  -0.80136  -0.00225  -0.77093   0.36658
  41 7   H  1S          0.37888  -0.05227   0.86230  -0.14725   0.02569
  42        2S         -0.33772   0.05911  -0.72355   0.18201   0.04795
  43 8   C  1S          0.01028  -0.00634  -0.00002   0.00601  -0.01227
  44        2S          0.01305  -0.00946   0.00015  -0.05494   0.03833
  45        2PX         0.04983  -0.04727   0.00098   0.79313   0.08426
  46        2PY        -0.45767  -0.92198  -0.00130   0.03109   0.22891
  47        2PZ         0.00008  -0.00016   0.04124   0.00002   0.00007
  48        3S         -0.15041   0.02918  -0.00031   0.05567   1.05727
  49        3PX        -0.19463   0.11480  -0.00117  -1.11394   0.44517
  50        3PY         0.65253   1.69520   0.00281  -0.10126  -1.32546
  51        3PZ        -0.00029   0.00065  -0.30295   0.00045  -0.00018
  52 9   H  1S         -0.30791  -0.33633   0.00042   0.36830  -0.47440
  53        2S          0.54412   1.13310   0.00067  -0.71578  -0.19647
  54 10  H  1S          0.48450   0.20914   0.00043   0.42976   0.35304
  55        2S         -0.75841  -0.96930  -0.00199  -0.67134   0.31057
  56 11  H  1S          0.37623  -0.04897  -0.86462  -0.14526   0.02596
  57        2S         -0.33343   0.05532   0.72622   0.18110   0.04850
                          51        52        53        54        55
                           V         V         V         V         V
     Eigenvalues --     1.58035   1.65073   1.73388   1.93024   2.03156
   1 1   C  1S          0.01233   0.01346   0.00153   0.01372   0.01346
   2        2S         -0.23167  -0.71565   0.55791   0.59706  -0.09934
   3        2PX         0.44605   0.08701   0.07825   0.21151   0.15797
   4        2PY         0.03226   0.12278   0.06879  -0.03558   0.06544
   5        2PZ        -0.00000   0.00007  -0.00004  -0.00001  -0.00000
   6        3S         -0.46487   0.41164  -1.15624  -2.25989   0.60051
   7        3PX        -0.57777   0.17370   0.95393  -0.19719   0.70736
   8        3PY         0.38632  -0.55432  -1.04416   2.22284  -0.65887
   9        3PZ        -0.00004  -0.00053  -0.00005   0.00056  -0.00026
  10 2   C  1S          0.02299   0.02051   0.00502   0.00024   0.02252
  11        2S         -0.69438  -0.69051   0.23177   0.66999   1.07379
  12        2PX        -0.22343   0.03901  -0.03511  -0.21841  -0.15329
  13        2PY        -0.01308  -0.00097  -0.10244   0.08759  -0.04317
  14        2PZ        -0.00002  -0.00014  -0.00001   0.00012   0.00001
  15        3S          1.62714   0.54121  -0.91623   0.59529  -2.58923
  16        3PX         1.29779   0.35972   0.80362   0.77320   1.64508
  17        3PY        -0.03181  -0.16854  -0.13222   0.01084  -0.04466
  18        3PZ         0.00019   0.00049  -0.00041   0.00000  -0.00056
  19 3   C  1S          0.00394   0.02408  -0.04710   0.01398  -0.00456
  20        2S          0.00744  -0.33060   0.58115   0.22081  -0.28413
  21        2PX         0.28029   0.00649  -0.11690   0.29037   0.19635
  22        2PY        -0.05629   0.06701   0.05811  -0.15256   0.03215
  23        2PZ         0.00005   0.00019   0.00000  -0.00018   0.00000
  24        3S         -0.39918   0.09727   0.75786  -2.05827   0.94074
  25        3PX        -0.61529  -0.02996  -0.62556   0.17385   0.26363
  26        3PY        -0.29320  -0.58656   0.58182  -0.67814   0.23529
  27        3PZ        -0.00038  -0.00106  -0.00029   0.00087  -0.00022
  28 4   C  1S         -0.00516   0.01674  -0.00613  -0.02387  -0.00709
  29        2S          0.44936  -0.88162  -0.01921  -0.10903  -1.33453
  30        2PX        -0.52887  -0.27855   0.09214  -0.67346  -0.08714
  31        2PY        -0.13899  -0.14016  -0.72870   0.23638  -0.08051
  32        2PZ        -0.00011  -0.00029   0.00002   0.00004   0.00003
  33        3S         -1.63836   0.54888  -0.01537  -0.66701   2.70149
  34        3PX         2.96542   0.93801  -0.73620   5.96978   0.13936
  35        3PY         0.54299   0.29907   2.88250  -0.52951   0.43518
  36        3PZ         0.00043   0.00091  -0.00008   0.00021  -0.00014
  37 5   H  1S          0.06619   0.37622   0.40846  -0.47602   0.13160
  38        2S         -0.23226  -0.07613   0.58122  -0.44342   0.16968
  39 6   H  1S         -0.39553   0.01885  -0.20689  -0.39263  -0.22726
  40        2S         -0.84905  -0.40965  -0.13317  -0.25432  -0.21738
  41 7   H  1S          0.02222   0.16139  -0.20173   0.05876  -0.02625
  42        2S         -0.04979  -0.40972   0.39847   0.05189  -0.08810
  43 8   C  1S         -0.04141   0.02081   0.01256  -0.01963  -0.00535
  44        2S          0.67045  -0.87590  -0.33600  -1.08691   0.95422
  45        2PX        -0.01714   0.17726  -0.08019   0.16258   0.14086
  46        2PY         0.11067   0.05968   0.22460  -0.04019   0.00958
  47        2PZ         0.00003   0.00003  -0.00002   0.00001  -0.00001
  48        3S          1.37528   1.79980  -0.04678   5.75774  -2.01017
  49        3PX         1.21814  -0.05063  -0.12857   1.97073  -0.56831
  50        3PY        -0.60986  -0.32285  -2.12024   0.39812  -0.23983
  51        3PZ         0.00000  -0.00028  -0.00003   0.00032   0.00004
  52 9   H  1S         -0.42824   0.03797  -0.49578  -0.08453   0.01059
  53        2S          0.34438  -0.57484  -0.60047  -0.10631   0.17863
  54 10  H  1S         -0.11092   0.17266   0.55500  -0.23764   0.11130
  55        2S          0.64057  -0.38516   0.39409  -0.33332   0.30364
  56 11  H  1S          0.02188   0.16062  -0.20180   0.05905  -0.02630
  57        2S         -0.04991  -0.41003   0.39833   0.05240  -0.08820
                          56        57
                           V         V
     Eigenvalues --     2.19289   2.58013
   1 1   C  1S         -0.05461  -0.06473
   2        2S         -1.41528  -0.91280
   3        2PX        -0.00211   0.03588
   4        2PY         0.13035   0.08646
   5        2PZ         0.00001  -0.00003
   6        3S          5.02726   5.32752
   7        3PX        -0.12078   0.45729
   8        3PY        -2.71728  -3.83608
   9        3PZ        -0.00098  -0.00122
  10 2   C  1S          0.00313   0.07838
  11        2S          0.55086   1.08922
  12        2PX        -0.13089   0.01662
  13        2PY        -0.18316  -0.08857
  14        2PZ         0.00002  -0.00002
  15        3S         -2.46830  -6.14227
  16        3PX         1.75297   3.40802
  17        3PY        -0.60279   0.20615
  18        3PZ        -0.00061  -0.00152
  19 3   C  1S          0.03016  -0.12437
  20        2S          1.43301  -1.56088
  21        2PX         0.06326  -0.00083
  22        2PY         0.13457   0.10341
  23        2PZ         0.00013   0.00019
  24        3S         -2.10080   6.51960
  25        3PX         0.35185  -0.32110
  26        3PY         0.06126   2.25374
  27        3PZ        -0.00076  -0.00157
  28 4   C  1S          0.00712   0.08143
  29        2S          0.26406   1.09857
  30        2PX         0.05031  -0.06610
  31        2PY         0.07686  -0.21359
  32        2PZ         0.00002   0.00008
  33        3S         -1.50700  -5.69685
  34        3PX        -1.04400  -2.40382
  35        3PY        -1.87266   0.99471
  36        3PZ        -0.00023  -0.00067
  37 5   H  1S          0.18945   0.31425
  38        2S          0.37392   0.84184
  39 6   H  1S         -0.17487  -0.14891
  40        2S         -0.35246  -0.53457
  41 7   H  1S          0.12089  -0.39939
  42        2S          0.45752  -0.11744
  43 8   C  1S         -0.00130  -0.01625
  44        2S         -0.10434  -0.40171
  45        2PX        -0.04254  -0.02478
  46        2PY        -0.03553   0.01910
  47        2PZ        -0.00004  -0.00006
  48        3S         -0.17462   0.57290
  49        3PX        -0.02174   0.23223
  50        3PY         1.00248  -0.54461
  51        3PZ         0.00013   0.00026
  52 9   H  1S          0.20850  -0.14477
  53        2S          0.24645  -0.25793
  54 10  H  1S         -0.23600   0.04338
  55        2S         -0.22825   0.06848
  56 11  H  1S          0.12066  -0.39965
  57        2S          0.45689  -0.11844
     Density Matrix:
                           1         2         3         4         5
   1 1   C  1S          2.03986
   2        2S          0.10285   0.11990
   3        2PX        -0.00286   0.00682   0.29741
   4        2PY         0.00085  -0.00701  -0.01313   0.31097
   5        2PZ        -0.00001  -0.00000  -0.00002   0.00002   0.21390
   6        3S         -0.42906   0.22934  -0.01905   0.00695   0.00012
   7        3PX         0.00074  -0.00181   0.16025  -0.00441   0.00002
   8        3PY         0.08411  -0.00462   0.00616   0.27056  -0.00008
   9        3PZ         0.00002   0.00001   0.00002  -0.00001   0.24735
  10 2   C  1S          0.01885  -0.03194  -0.06739   0.04150   0.00004
  11        2S         -0.03171   0.02402   0.07134  -0.04407  -0.00004
  12        2PX         0.04530  -0.04921  -0.12134   0.08607   0.00013
  13        2PY        -0.06416   0.06615   0.16046  -0.10571  -0.00010
  14        2PZ        -0.00004   0.00004   0.00012  -0.00011   0.19939
  15        3S          0.07087   0.02937   0.20082  -0.04076  -0.00019
  16        3PX        -0.02850  -0.02827  -0.13133   0.02612   0.00019
  17        3PY        -0.00014   0.02123   0.10522  -0.06456  -0.00007
  18        3PZ        -0.00002   0.00003   0.00010  -0.00010   0.23531
  19 3   C  1S         -0.00905   0.00415  -0.00173  -0.01779  -0.00001
  20        2S          0.00429  -0.00268   0.00224   0.01357  -0.00000
  21        2PX        -0.00201   0.00083  -0.03098  -0.00290  -0.00000
  22        2PY         0.02039  -0.01914  -0.00027   0.03539   0.00003
  23        2PZ        -0.00000   0.00000  -0.00000  -0.00000  -0.02362
  24        3S          0.03693  -0.05776   0.00687   0.11688   0.00010
  25        3PX        -0.00357   0.00062  -0.03813   0.00067  -0.00001
  26        3PY         0.02774  -0.04170   0.00323   0.08059   0.00009
  27        3PZ         0.00003   0.00000   0.00000   0.00001  -0.02027
  28 4   C  1S          0.01217  -0.02191   0.05717   0.03169  -0.00000
  29        2S         -0.02138   0.01568  -0.05430  -0.03307   0.00001
  30        2PX        -0.03272   0.03414  -0.12026  -0.07046   0.00001
  31        2PY        -0.05665   0.05440  -0.15439  -0.10615  -0.00003
  32        2PZ        -0.00001   0.00001  -0.00003  -0.00003   0.04865
  33        3S          0.05600   0.01641  -0.19220  -0.05198  -0.00001
  34        3PX         0.02578   0.02333  -0.14052  -0.03556  -0.00007
  35        3PY         0.00436   0.02162  -0.14006  -0.08927   0.00000
  36        3PZ        -0.00001   0.00001  -0.00002  -0.00003   0.03669
  37 5   H  1S         -0.07028   0.06592  -0.00907   0.20105   0.00004
  38        2S         -0.02302   0.02751  -0.00380   0.14357   0.00005
  39 6   H  1S          0.00929  -0.01193  -0.03561   0.01003   0.00002
  40        2S          0.01984  -0.01098  -0.04137   0.01174   0.00001
  41 7   H  1S         -0.00553   0.00649   0.00085  -0.00966  -0.03583
  42        2S         -0.01019   0.00887  -0.00279  -0.02320  -0.06662
  43 8   C  1S         -0.00312   0.00428  -0.01397  -0.00380   0.00000
  44        2S          0.00418  -0.00437   0.01776   0.00472  -0.00000
  45        2PX         0.00816  -0.00870   0.03960   0.01333  -0.00001
  46        2PY         0.00632  -0.00549   0.01116   0.00247   0.00000
  47        2PZ         0.00000   0.00000   0.00001   0.00000  -0.01271
  48        3S          0.01345  -0.00172   0.01902   0.00181  -0.00005
  49        3PX         0.00844  -0.00244   0.01888   0.00811  -0.00002
  50        3PY        -0.00061  -0.00860   0.04621   0.02107  -0.00000
  51        3PZ         0.00001  -0.00000   0.00001   0.00001  -0.03742
  52 9   H  1S         -0.01001   0.00781  -0.02358  -0.01276  -0.00000
  53        2S         -0.01323   0.01082  -0.03495  -0.01810  -0.00001
  54 10  H  1S          0.00787  -0.00637   0.01659   0.00834   0.00000
  55        2S          0.01041  -0.00579   0.00766   0.01213   0.00001
  56 11  H  1S         -0.00554   0.00650   0.00086  -0.00970   0.03580
  57        2S         -0.01019   0.00889  -0.00277  -0.02326   0.06661
                           6         7         8         9        10
   6        3S          0.76188
   7        3PX        -0.02216   0.09408
   8        3PY        -0.08522   0.00548   0.27893
   9        3PZ         0.00014   0.00005  -0.00012   0.28948
  10 2   C  1S          0.07054   0.00330  -0.02823   0.00001   2.04005
  11        2S          0.02664   0.02403  -0.02778  -0.00003   0.10209
  12        2PX        -0.04413  -0.07473   0.02466   0.00012   0.00116
  13        2PY         0.22869   0.09299  -0.13805  -0.00008  -0.00368
  14        2PZ         0.00019   0.00009  -0.00018   0.23485   0.00001
  15        3S         -0.09189   0.05978   0.02264  -0.00019  -0.42041
  16        3PX         0.03417  -0.07458  -0.03625   0.00020   0.08269
  17        3PY         0.08031   0.06362  -0.07989  -0.00006   0.00274
  18        3PZ         0.00019   0.00009  -0.00019   0.28100  -0.00003
  19 3   C  1S          0.05458  -0.00693  -0.03110  -0.00000   0.00966
  20        2S         -0.05287   0.00209   0.03877  -0.00000  -0.01700
  21        2PX         0.00427  -0.03369  -0.00429  -0.00000  -0.04907
  22        2PY        -0.19597  -0.00335   0.12138   0.00003  -0.03699
  23        2PZ         0.00000  -0.00001   0.00001  -0.03977   0.00002
  24        3S         -0.23306   0.01073   0.16152   0.00010   0.05038
  25        3PX         0.00263  -0.02722   0.00016  -0.00002  -0.01145
  26        3PY        -0.19754   0.00105   0.13378   0.00010   0.01543
  27        3PZ        -0.00001  -0.00000   0.00002  -0.03261   0.00000
  28 4   C  1S          0.05721   0.00017  -0.01679  -0.00001  -0.00769
  29        2S          0.01262  -0.01508  -0.02093   0.00001   0.00568
  30        2PX         0.05111  -0.08250  -0.03385   0.00001   0.01776
  31        2PY         0.22042  -0.09495  -0.14877  -0.00004   0.00219
  32        2PZ         0.00003  -0.00001  -0.00003   0.03134   0.00000
  33        3S         -0.04359  -0.06293  -0.02480  -0.00002   0.02444
  34        3PX        -0.01122  -0.07932   0.00714  -0.00009   0.02798
  35        3PY         0.10752  -0.08383  -0.11744  -0.00000   0.00718
  36        3PZ         0.00001  -0.00001  -0.00001   0.01533  -0.00002
  37 5   H  1S          0.17182  -0.00708   0.17682   0.00002   0.00892
  38        2S          0.06591  -0.00271   0.13081   0.00004   0.01852
  39 6   H  1S         -0.01590  -0.03770  -0.01049   0.00002  -0.07061
  40        2S         -0.02080  -0.03285  -0.00065   0.00001  -0.02395
  41 7   H  1S          0.04540   0.00224  -0.02771  -0.04764   0.00370
  42        2S          0.07678  -0.00078  -0.05359  -0.08216   0.01785
  43 8   C  1S          0.01102  -0.01431  -0.00136   0.00000   0.00340
  44        2S         -0.01637   0.01672   0.00287  -0.00000  -0.00555
  45        2PX        -0.03323   0.04799   0.00482  -0.00000  -0.01052
  46        2PY        -0.02868   0.00620   0.00724   0.00001  -0.00009
  47        2PZ        -0.00004   0.00000   0.00003  -0.03941  -0.00002
  48        3S         -0.04642   0.01683   0.02080  -0.00006  -0.00425
  49        3PX        -0.02398   0.02260   0.01109  -0.00002  -0.00130
  50        3PY        -0.04390   0.02710   0.03068   0.00000  -0.00197
  51        3PZ        -0.00007   0.00000   0.00006  -0.07194  -0.00001
  52 9   H  1S          0.03651  -0.01908  -0.01694  -0.00001   0.00057
  53        2S          0.04859  -0.02703  -0.02365  -0.00001   0.00512
  54 10  H  1S         -0.03204   0.00473   0.01720   0.00001   0.00031
  55        2S         -0.03140  -0.00137   0.02235   0.00001   0.00550
  56 11  H  1S          0.04550   0.00226  -0.02781   0.04760   0.00371
  57        2S          0.07694  -0.00074  -0.05375   0.08215   0.01785
                          11        12        13        14        15
  11        2S          0.11839
  12        2PX        -0.00463   0.31235
  13        2PY         0.01128  -0.01625   0.29681
  14        2PZ         0.00000  -0.00004   0.00001   0.20385
  15        3S          0.23408  -0.00642  -0.05277  -0.00012   0.74315
  16        3PX        -0.01085   0.28201   0.03869   0.00005  -0.09279
  17        3PY        -0.00052   0.00710   0.18404  -0.00001  -0.05714
  18        3PZ        -0.00000   0.00000  -0.00002   0.24028  -0.00013
  19 3   C  1S         -0.01786   0.02267   0.05020  -0.00000   0.04806
  20        2S          0.01230  -0.02412  -0.04382  -0.00000   0.01612
  21        2PX         0.04515  -0.08736  -0.14801   0.00004   0.18091
  22        2PY         0.03431  -0.06832  -0.14065   0.00001   0.14914
  23        2PZ        -0.00002   0.00004   0.00006   0.01701  -0.00005
  24        3S          0.01453  -0.03546  -0.17270   0.00005  -0.03989
  25        3PX         0.01932  -0.07230  -0.11381   0.00002   0.09160
  26        3PY         0.01521  -0.02637  -0.13321   0.00006   0.09251
  27        3PZ        -0.00002   0.00003   0.00004   0.02262  -0.00003
  28 4   C  1S          0.00653  -0.01655   0.00093   0.00001   0.02621
  29        2S         -0.00285   0.01137  -0.00296  -0.00000  -0.04736
  30        2PX        -0.01724   0.03047  -0.00355  -0.00003  -0.11464
  31        2PY        -0.00500   0.00549  -0.01873  -0.00001  -0.04073
  32        2PZ        -0.00000   0.00001   0.00000  -0.00193  -0.00000
  33        3S         -0.05639   0.12216  -0.00617  -0.00009  -0.20417
  34        3PX        -0.03542   0.06054  -0.02230  -0.00014  -0.14683
  35        3PY        -0.00650   0.00621  -0.05561   0.00001  -0.03799
  36        3PZ         0.00001  -0.00002  -0.00000  -0.02578   0.00004
  37 5   H  1S         -0.01115   0.01139  -0.03601  -0.00002  -0.01111
  38        2S         -0.00888   0.01395  -0.04108   0.00000  -0.00226
  39 6   H  1S          0.06745   0.20153   0.00089  -0.00006   0.17182
  40        2S          0.03201   0.13808  -0.00681  -0.00005   0.07743
  41 7   H  1S         -0.00497   0.00696   0.02646  -0.00883  -0.05162
  42        2S         -0.01073   0.01828   0.05099  -0.04119  -0.05832
  43 8   C  1S         -0.00536   0.00849   0.00083  -0.00001  -0.00934
  44        2S          0.00475  -0.00949  -0.00045   0.00001   0.02155
  45        2PX         0.01101  -0.02123  -0.00159   0.00002   0.04794
  46        2PY         0.00031   0.00013   0.00488   0.00001   0.00148
  47        2PZ         0.00001  -0.00005   0.00000  -0.06661   0.00010
  48        3S          0.01035  -0.03560  -0.01916  -0.00004   0.03096
  49        3PX         0.00643  -0.01971  -0.00855  -0.00001   0.02484
  50        3PY         0.00196  -0.00073   0.02473   0.00000   0.00961
  51        3PZ         0.00002  -0.00007   0.00001  -0.09904   0.00013
  52 9   H  1S         -0.00121   0.00160  -0.00571  -0.00001  -0.00805
  53        2S         -0.00454   0.01015  -0.00086  -0.00001  -0.02246
  54 10  H  1S         -0.00015   0.00087   0.00583   0.00000  -0.00056
  55        2S         -0.00358   0.00802   0.00285  -0.00000  -0.01255
  56 11  H  1S         -0.00497   0.00696   0.02647   0.00883  -0.05167
  57        2S         -0.01074   0.01831   0.05101   0.04121  -0.05843
                          16        17        18        19        20
  16        3PX         0.28707
  17        3PY         0.04191   0.12829
  18        3PZ         0.00010  -0.00003   0.28954
  19 3   C  1S         -0.00311  -0.00904   0.00001   2.04227
  20        2S         -0.02251  -0.00946  -0.00000   0.12415   0.09776
  21        2PX        -0.12456  -0.12200   0.00004   0.00064  -0.00246
  22        2PY        -0.09978  -0.09502   0.00003   0.00048   0.00304
  23        2PZ         0.00003   0.00004  -0.01558  -0.00000   0.00000
  24        3S         -0.03780  -0.02932   0.00006  -0.46931   0.23181
  25        3PX        -0.09520  -0.09329   0.00001   0.00736  -0.00221
  26        3PY        -0.06367  -0.08061   0.00008  -0.04345   0.00733
  27        3PZ         0.00003   0.00003  -0.00466   0.00001   0.00000
  28 4   C  1S         -0.02120   0.00064  -0.00000   0.00912  -0.01733
  29        2S          0.03338   0.00010   0.00000  -0.01821   0.01291
  30        2PX         0.07394   0.00918  -0.00002  -0.02521   0.02657
  31        2PY         0.03014  -0.04566  -0.00001   0.05146  -0.04593
  32        2PZ         0.00001   0.00000  -0.02350  -0.00000   0.00000
  33        3S          0.16231   0.00626  -0.00008   0.05974   0.00631
  34        3PX         0.09699   0.00027  -0.00014   0.00350   0.02274
  35        3PY         0.02193  -0.05281   0.00001  -0.02211  -0.01426
  36        3PZ        -0.00003  -0.00000  -0.05008   0.00000   0.00000
  37 5   H  1S         -0.00994  -0.03764  -0.00001  -0.01136   0.00996
  38        2S         -0.00736  -0.03239   0.00001  -0.01065   0.00669
  39 6   H  1S          0.17642   0.00661  -0.00004   0.00701  -0.00783
  40        2S          0.12384   0.00162  -0.00004   0.00882  -0.00516
  41 7   H  1S          0.02255   0.03152  -0.03023  -0.05082   0.04760
  42        2S          0.03355   0.03597  -0.06522   0.01617   0.01060
  43 8   C  1S          0.00327   0.00297  -0.00000  -0.00256   0.00394
  44        2S         -0.01440  -0.00314   0.00001   0.00457  -0.00384
  45        2PX        -0.03506  -0.00835   0.00002   0.00665  -0.00688
  46        2PY        -0.00050   0.01460   0.00001  -0.00652   0.00504
  47        2PZ        -0.00008   0.00000  -0.09653  -0.00000   0.00000
  48        3S         -0.03506  -0.01431  -0.00005  -0.00656   0.00359
  49        3PX        -0.02601  -0.00837  -0.00001   0.00003   0.00065
  50        3PY        -0.00400   0.02913   0.00001   0.00835   0.00551
  51        3PZ        -0.00012   0.00001  -0.13741  -0.00000   0.00000
  52 9   H  1S          0.00655  -0.01241  -0.00001   0.00831  -0.00593
  53        2S          0.01818  -0.00801  -0.00001   0.01348  -0.00624
  54 10  H  1S          0.00144   0.01436   0.00000  -0.00993   0.00686
  55        2S          0.00933   0.01384   0.00000  -0.01431   0.00990
  56 11  H  1S          0.02260   0.03152   0.03021  -0.05081   0.04759
  57        2S          0.03365   0.03598   0.06523   0.01618   0.01059
                          21        22        23        24        25
  21        2PX         0.25678
  22        2PY        -0.00259   0.28891
  23        2PZ         0.00000   0.00000   0.28218
  24        3S          0.01029  -0.04998   0.00003   0.92490
  25        3PX         0.18152   0.00250   0.00001   0.00109   0.13396
  26        3PY         0.00210   0.20674   0.00002   0.02662   0.00391
  27        3PZ         0.00001   0.00002   0.26307   0.00002   0.00002
  28 4   C  1S          0.05339  -0.03141   0.00000   0.05447   0.00876
  29        2S         -0.04839   0.03122  -0.00000   0.00857  -0.01993
  30        2PX        -0.11249   0.06782  -0.00000   0.03967  -0.09176
  31        2PY         0.14517  -0.12171   0.00002  -0.16435   0.10834
  32        2PZ        -0.00002   0.00000   0.01434  -0.00000  -0.00001
  33        3S         -0.18952   0.08495   0.00001  -0.09889  -0.09452
  34        3PX        -0.15310   0.11007  -0.00000   0.00735  -0.10848
  35        3PY         0.13706  -0.10773   0.00000  -0.02977   0.10187
  36        3PZ        -0.00002   0.00001  -0.01948  -0.00001  -0.00001
  37 5   H  1S          0.00218   0.02740  -0.00001   0.04351   0.00413
  38        2S          0.00155   0.03385  -0.00001   0.03775   0.00283
  39 6   H  1S         -0.03411  -0.01191   0.00001  -0.02980  -0.04082
  40        2S         -0.03597  -0.00038   0.00001  -0.01994  -0.03486
  41 7   H  1S          0.00440  -0.11345   0.16526   0.18061   0.00071
  42        2S          0.00630  -0.11731   0.14319   0.04568   0.00256
  43 8   C  1S         -0.01381   0.00299  -0.00000   0.00952  -0.01505
  44        2S          0.01799  -0.00529   0.00000  -0.01583   0.01872
  45        2PX         0.03858  -0.01058   0.00000  -0.02915   0.05047
  46        2PY        -0.01024   0.00356  -0.00000   0.03059  -0.00893
  47        2PZ         0.00001   0.00000  -0.01288  -0.00002   0.00001
  48        3S          0.01047   0.04380  -0.00000  -0.00592   0.01338
  49        3PX         0.01395   0.01473  -0.00000  -0.00514   0.02097
  50        3PY        -0.04500   0.02646  -0.00000   0.02274  -0.03463
  51        3PZ         0.00001   0.00000  -0.01522  -0.00002   0.00002
  52 9   H  1S          0.01655  -0.01138   0.00000  -0.02863   0.00849
  53        2S          0.00664  -0.01465   0.00000  -0.03073   0.00008
  54 10  H  1S         -0.02299   0.01429  -0.00000   0.03285  -0.02256
  55        2S         -0.03533   0.02092  -0.00001   0.04287  -0.03242
  56 11  H  1S          0.00435  -0.11356  -0.16520   0.18058   0.00066
  57        2S          0.00626  -0.11742  -0.14314   0.04568   0.00252
                          26        27        28        29        30
  26        3PY         0.16708
  27        3PZ         0.00003   0.24735
  28 4   C  1S          0.01877  -0.00000   2.03984
  29        2S          0.01015  -0.00001   0.10059   0.12213
  30        2PX         0.02428  -0.00001   0.00907  -0.01989   0.33894
  31        2PY        -0.11877   0.00001  -0.00040   0.00184   0.00409
  32        2PZ        -0.00001  -0.00659   0.00000  -0.00000   0.00002
  33        3S          0.02849   0.00001  -0.39766   0.21978   0.01927
  34        3PX         0.05777  -0.00000  -0.08411   0.03778   0.27983
  35        3PY        -0.09491   0.00000   0.00073   0.00060  -0.00156
  36        3PZ        -0.00001  -0.04142  -0.00001   0.00000   0.00000
  37 5   H  1S          0.03680  -0.00000   0.00773  -0.00886  -0.01203
  38        2S          0.04163  -0.00000   0.01451  -0.00782  -0.01552
  39 6   H  1S         -0.00667   0.00001  -0.01165   0.00952   0.02661
  40        2S          0.00200   0.00001  -0.01310   0.00815   0.03726
  41 7   H  1S         -0.07637   0.15471   0.00313  -0.00508  -0.00931
[...]
  39 6   H  1S         -0.00003  -0.00001  -0.00000  -0.00081  -0.00310
  40        2S         -0.00150  -0.00001  -0.00000  -0.00298  -0.00865
  41 7   H  1S          0.00003   0.01808   0.03798   0.05965   0.00001
  42        2S          0.00004   0.01561   0.02748   0.03010   0.00004
  43 8   C  1S          0.00000   0.00000   0.00000   0.00002   0.00009
  44        2S         -0.00001  -0.00000  -0.00000  -0.00027  -0.00101
  45        2PX        -0.00003  -0.00000  -0.00000  -0.00062  -0.00294
  46        2PY        -0.00000  -0.00000  -0.00000  -0.00029  -0.00028
  47        2PZ        -0.00000   0.00000  -0.00000  -0.00000  -0.00000
  48        3S         -0.00022   0.00042   0.00000  -0.00052  -0.00236
  49        3PX        -0.00081   0.00045   0.00000  -0.00091  -0.00562
  50        3PY        -0.00139  -0.00008  -0.00000  -0.00180  -0.00551
  51        3PZ        -0.00000   0.00000  -0.00016  -0.00000  -0.00000
  52 9   H  1S         -0.00000  -0.00000  -0.00000  -0.00012  -0.00014
  53        2S         -0.00007  -0.00001  -0.00000  -0.00148  -0.00001
  54 10  H  1S          0.00000   0.00000   0.00000   0.00001   0.00004
  55        2S          0.00004   0.00002   0.00000   0.00053   0.00097
  56 11  H  1S          0.00003   0.01811   0.03795   0.05964   0.00001
  57        2S          0.00004   0.01564   0.02746   0.03009   0.00004
                          26        27        28        29        30
  26        3PY         0.16708
  27        3PZ         0.00000   0.24735
  28 4   C  1S          0.00120   0.00000   2.03984
  29        2S          0.00303   0.00000   0.01926   0.12213
  30        2PX         0.00452   0.00000   0.00000   0.00000   0.33894
  31        2PY         0.00524   0.00000   0.00000   0.00000   0.00000
  32        2PZ        -0.00000  -0.00093   0.00000   0.00000   0.00000
  33        3S          0.01131  -0.00000  -0.07170   0.16733   0.00000
  34        3PX         0.02087   0.00000   0.00000   0.00000   0.14802
  35        3PY        -0.00765   0.00000   0.00000   0.00000   0.00000
  36        3PZ        -0.00000  -0.01820   0.00000   0.00000   0.00000
  37 5   H  1S          0.00033  -0.00000   0.00000  -0.00000  -0.00001
  38        2S          0.00345  -0.00000   0.00008  -0.00034  -0.00035
  39 6   H  1S         -0.00029  -0.00000  -0.00000   0.00000   0.00000
  40        2S          0.00029  -0.00000  -0.00000   0.00004   0.00025
  41 7   H  1S          0.02175   0.06353   0.00000  -0.00000  -0.00001
  42        2S          0.02874   0.06499   0.00012  -0.00063  -0.00059
  43 8   C  1S          0.00001  -0.00000   0.00000  -0.00029  -0.00177
  44        2S         -0.00009  -0.00000  -0.00028   0.00404   0.01890
  45        2PX        -0.00013  -0.00000  -0.00186   0.01923   0.06795
  46        2PY        -0.00003  -0.00000  -0.00000   0.00000   0.00000
  47        2PZ        -0.00000  -0.00036   0.00000  -0.00000   0.00000
  48        3S          0.00217   0.00000  -0.00109   0.01756   0.02020
  49        3PX         0.00195   0.00000  -0.00254   0.02456   0.01872
  50        3PY         0.00048  -0.00000  -0.00000  -0.00000   0.00000
  51        3PZ        -0.00000  -0.00347   0.00000  -0.00000   0.00000
  52 9   H  1S         -0.00001  -0.00000   0.00000  -0.00003  -0.00012
  53        2S         -0.00011  -0.00000   0.00020  -0.00157  -0.00442
  54 10  H  1S          0.00002   0.00000   0.00000  -0.00003  -0.00012
  55        2S          0.00043   0.00000   0.00019  -0.00155  -0.00449
  56 11  H  1S          0.02179   0.06350   0.00000  -0.00000  -0.00001
  57        2S          0.02878   0.06495   0.00012  -0.00063  -0.00059
                          31        32        33        34        35
  31        2PY         0.27634
  32        2PZ         0.00000   0.21199
  33        3S          0.00000   0.00000   0.65927
  34        3PX         0.00000   0.00000   0.00000   0.29377
  35        3PY         0.11144   0.00000   0.00000   0.00000   0.18918
  36        3PZ         0.00000   0.12583   0.00000   0.00000   0.00000
  37 5   H  1S         -0.00004  -0.00000  -0.00077   0.00001  -0.00401
  38        2S         -0.00186  -0.00000  -0.00302  -0.00026  -0.01138
  39 6   H  1S          0.00000  -0.00000   0.00014   0.00034  -0.00000
  40        2S         -0.00000   0.00000   0.00190   0.00401  -0.00001
  41 7   H  1S         -0.00004  -0.00000  -0.00147  -0.00187  -0.00356
  42        2S         -0.00249  -0.00034  -0.00704  -0.00661  -0.01250
  43 8   C  1S         -0.00000  -0.00000   0.00222   0.00164   0.00000
  44        2S         -0.00000   0.00000   0.01102   0.02166  -0.00000
  45        2PX         0.00000   0.00000   0.04702   0.03388  -0.00000
  46        2PY         0.00212   0.00000  -0.00000   0.00000  -0.00539
  47        2PZ         0.00000   0.01475  -0.00000   0.00000   0.00000
  48        3S          0.00001   0.00000   0.00350  -0.01790   0.00003
  49        3PX         0.00001   0.00000   0.06350   0.00862   0.00002
  50        3PY        -0.00477   0.00000   0.00001  -0.00001  -0.03810
  51        3PZ         0.00000   0.04668  -0.00000   0.00000   0.00000
  52 9   H  1S         -0.00001  -0.00000  -0.00308  -0.00522  -0.00232
  53        2S         -0.00055  -0.00000  -0.01200  -0.01717  -0.00611
  54 10  H  1S         -0.00001  -0.00000  -0.00306  -0.00616  -0.00224
  55        2S         -0.00055  -0.00000  -0.01172  -0.02069  -0.00628
  56 11  H  1S         -0.00004  -0.00000  -0.00147  -0.00187  -0.00356
  57        2S         -0.00249  -0.00034  -0.00705  -0.00662  -0.01251
                          36        37        38        39        40
  36        3PZ         0.27369
  37 5   H  1S         -0.00000   0.18189
  38        2S         -0.00000   0.07489   0.07762
  39 6   H  1S          0.00000  -0.00000  -0.00002   0.18278
  40        2S          0.00000  -0.00003  -0.00003   0.07455   0.07597
  41 7   H  1S         -0.00117  -0.00000  -0.00000  -0.00000  -0.00004
  42        2S         -0.00377  -0.00000  -0.00011   0.00001  -0.00017
  43 8   C  1S          0.00000   0.00000  -0.00000   0.00000   0.00000
  44        2S          0.00000  -0.00000   0.00000  -0.00000  -0.00000
  45        2PX         0.00000  -0.00000   0.00000  -0.00000  -0.00000
  46        2PY         0.00000  -0.00000   0.00001  -0.00000  -0.00000
  47        2PZ         0.04799  -0.00000  -0.00000   0.00000   0.00000
  48        3S         -0.00000   0.00000   0.00018  -0.00000  -0.00002
  49        3PX         0.00000   0.00002   0.00022  -0.00000  -0.00005
  50        3PY         0.00000   0.00005   0.00070   0.00000   0.00000
  51        3PZ         0.15122  -0.00000  -0.00000   0.00000   0.00000
  52 9   H  1S         -0.00000  -0.00000  -0.00000   0.00000   0.00000
  53        2S         -0.00000  -0.00000  -0.00002   0.00000   0.00000
  54 10  H  1S         -0.00000   0.00000   0.00002   0.00000   0.00000
  55        2S         -0.00000   0.00001   0.00029   0.00000   0.00000
  56 11  H  1S         -0.00116  -0.00000  -0.00000  -0.00000  -0.00004
  57        2S         -0.00376  -0.00000  -0.00011   0.00001  -0.00017
                          41        42        43        44        45
  41 7   H  1S          0.17524
  42        2S          0.09174   0.13677
  43 8   C  1S          0.00000   0.00000   2.03488
  44        2S         -0.00000   0.00000   0.01873   0.11864
  45        2PX        -0.00000  -0.00001   0.00000   0.00000   0.31825
  46        2PY        -0.00000   0.00001   0.00000   0.00000   0.00000
  47        2PZ        -0.00000  -0.00002   0.00000   0.00000   0.00000
  48        3S         -0.00004  -0.00067  -0.06718   0.16576   0.00000
  49        3PX        -0.00006  -0.00059   0.00000   0.00000   0.08091
  50        3PY         0.00005   0.00073   0.00000   0.00000   0.00000
  51        3PZ        -0.00005  -0.00020   0.00000   0.00000   0.00000
  52 9   H  1S          0.00000   0.00002  -0.00109   0.01073   0.01613
  53        2S          0.00000   0.00027   0.00039   0.00693   0.01257
  54 10  H  1S         -0.00000  -0.00000  -0.00109   0.01068   0.01648
  55        2S         -0.00000  -0.00003   0.00039   0.00678   0.01288
  56 11  H  1S         -0.00014  -0.00403   0.00000  -0.00000  -0.00000
  57        2S         -0.00404  -0.01255   0.00000   0.00000  -0.00001
                          46        47        48        49        50
  46        2PY         0.28179
  47        2PZ         0.00000   0.22349
  48        3S          0.00000   0.00000   0.63816
  49        3PX         0.00000   0.00000   0.00000   0.07775
  50        3PY         0.13263   0.00000   0.00000   0.00000   0.23464
  51        3PZ         0.00000   0.13847   0.00000   0.00000   0.00000
  52 9   H  1S          0.04127   0.00000   0.06247   0.01623   0.06589
  53        2S          0.02835   0.00000   0.05376   0.01672   0.06617
  54 10  H  1S          0.04090  -0.00000   0.06384   0.01600   0.06531
  55        2S          0.02816  -0.00000   0.05782   0.01616   0.06598
  56 11  H  1S         -0.00000  -0.00000  -0.00004  -0.00006   0.00005
  57        2S          0.00001  -0.00002  -0.00067  -0.00059   0.00073
                          51        52        53        54        55
  51        3PZ         0.30904
  52 9   H  1S          0.00000   0.17888
  53        2S          0.00000   0.08742   0.11287
  54 10  H  1S          0.00000  -0.00014  -0.00405   0.17885
  55        2S         -0.00000  -0.00409  -0.01234   0.08772   0.11383
  56 11  H  1S         -0.00005   0.00000   0.00000  -0.00000  -0.00000
  57        2S         -0.00020   0.00002   0.00027  -0.00000  -0.00003
                          56        57
  56 11  H  1S          0.17524
  57        2S          0.09176   0.13681
     Gross orbital populations:
                           1
   1 1   C  1S          1.98863
   2        2S          0.39451
   3        2PX         0.56765
   4        2PY         0.59775
   5        2PZ         0.40628
   6        3S          0.89228
   7        3PX         0.28072
   8        3PY         0.44366
   9        3PZ         0.59952
  10 2   C  1S          1.98850
  11        2S          0.39173
  12        2PX         0.60010
  13        2PY         0.56340
  14        2PZ         0.38724
  15        3S          0.93606
  16        3PX         0.49582
  17        3PY         0.31742
  18        3PZ         0.56794
  19 3   C  1S          1.98944
  20        2S          0.34935
  21        2PX         0.49652
  22        2PY         0.55152
  23        2PZ         0.54629
  24        3S          1.10950
  25        3PX         0.36882
  26        3PY         0.35348
  27        3PZ         0.61390
  28 4   C  1S          1.98848
  29        2S          0.39855
  30        2PX         0.64492
  31        2PY         0.52712
  32        2PZ         0.40348
  33        3S          0.80995
  34        3PX         0.36922
  35        3PY         0.34818
  36        3PZ         0.56811
  37 5   H  1S          0.46920
  38        2S          0.29431
  39 6   H  1S          0.47051
  40        2S          0.29549
  41 7   H  1S          0.45632
  42        2S          0.31923
  43 8   C  1S          1.98708
  44        2S          0.39100
  45        2PX         0.61620
  46        2PY         0.54878
  47        2PZ         0.42376
  48        3S          0.98813
  49        3PX         0.32144
  50        3PY         0.57327
  51        3PZ         0.63160
  52 9   H  1S          0.46276
  53        2S          0.32786
  54 10  H  1S          0.46275
  55        2S          0.32869
  56 11  H  1S          0.45633
  57        2S          0.31927
          Condensed to atoms (all electrons):
               1          2          3          4          5          6
     1  C    5.357722   0.496749  -0.340591   0.320630   0.384772  -0.020143
     2  C    0.496749   5.410656   0.358454  -0.304981  -0.015082   0.389452
     3  C   -0.340591   0.358454   5.361512   0.272157   0.005291  -0.017261
     4  C    0.320630  -0.304981   0.272157   5.405471  -0.021950   0.006661
     5  H    0.384772  -0.015082   0.005291  -0.021950   0.409305  -0.000082
     6  H   -0.020143   0.389452  -0.017261   0.006661  -0.000082   0.407844
     7  H    0.008635  -0.046238   0.381293  -0.041975  -0.000114  -0.000200
     8  C   -0.045833   0.005865  -0.023416   0.573093   0.001187  -0.000072
     9  H    0.002206  -0.000257  -0.001987  -0.052401  -0.000021   0.000001
    10  H   -0.001819  -0.000129   0.002065  -0.056703   0.000317   0.000001
    11  H    0.008663  -0.046274   0.381297  -0.042002  -0.000114  -0.000201
               7          8          9         10         11
     1  C    0.008635  -0.045833   0.002206  -0.001819   0.008663
     2  C   -0.046238   0.005865  -0.000257  -0.000129  -0.046274
     3  C    0.381293  -0.023416  -0.001987   0.002065   0.381297
     4  C   -0.041975   0.573093  -0.052401  -0.056703  -0.042002
     5  H   -0.000114   0.001187  -0.000021   0.000317  -0.000114
     6  H   -0.000200  -0.000072   0.000001   0.000001  -0.000201
     7  H    0.495492  -0.000838   0.000288  -0.000033  -0.020763
     8  C   -0.000838   5.175313   0.396522   0.400288  -0.000840
     9  H    0.000288   0.396522   0.466596  -0.020619   0.000289
    10  H   -0.000033   0.400288  -0.020619   0.468112  -0.000033
    11  H   -0.020763  -0.000840   0.000289  -0.000033   0.495573
 Mulliken charges:
               1
     1  C   -0.170990
     2  C   -0.248215
     3  C   -0.378813
     4  C   -0.058001
     5  H    0.236492
     6  H    0.234000
     7  H    0.224454
     8  C   -0.481268
     9  H    0.209383
    10  H    0.208554
    11  H    0.224405
 Sum of Mulliken charges =  -0.00000
 Mulliken charges with hydrogens summed into heavy atoms:
               1
     1  C    0.065501
     2  C   -0.014216
     3  C    0.070046
     4  C   -0.058001
     8  C   -0.063331
 Electronic spatial extent (au):  <R**2>=            376.8740
 Charge=             -0.0000 electrons
 Dipole moment (field-independent basis, Debye):
    X=              0.5084    Y=             -0.1153    Z=              0.0003  Tot=              0.5213
 Quadrupole moment (field-independent basis, Debye-Ang):
   XX=            -28.1891   YY=            -28.2738   ZZ=            -34.0808
   XY=             -0.3816   XZ=             -0.0004   YZ=              0.0001
 Traceless Quadrupole moment (field-independent basis, Debye-Ang):
   XX=              1.9921   YY=              1.9074   ZZ=             -3.8996
   XY=             -0.3816   XZ=             -0.0004   YZ=              0.0001
 Octapole moment (field-independent basis, Debye-Ang**2):
  XXX=              1.8469  YYY=              3.4842  ZZZ=              0.0018  XYY=             -1.3918
  XXY=             -0.2181  XXZ=             -0.0032  XZZ=              1.2123  YZZ=             -2.5062
  YYZ=              0.0021  XYZ=             -0.0006
 Hexadecapole moment (field-independent basis, Debye-Ang**3):
 XXXX=           -289.5433 YYYY=           -138.0739 ZZZZ=            -42.7609 XXXY=              0.0282
 XXXZ=             -0.0075 YYYX=              0.4921 YYYZ=              0.0012 ZZZX=             -0.0006
 ZZZY=             -0.0040 XXYY=            -76.4034 XXZZ=            -69.0549 YYZZ=            -31.8928
 XXYZ=             -0.0009 YYXZ=              0.0014 ZZXY=             -1.7434
 N-N= 1.519766459707D+02 E-N=-7.492694170541D+02  KE= 1.911067458021D+02
 Orbital energies and kinetic energies (alpha):
                                 1                 2
   1         O               -11.193671         15.878455
   2         O               -11.190694         15.877278
   3         O               -11.186997         15.878414
   4         O               -11.182650         15.882198
   5         O               -11.161859         15.871321
   6         O                -1.169495          1.444942
   7         O                -0.995771          1.573486
   8         O                -0.900337          1.433386
   9         O                -0.799082          1.368064
  10         O                -0.697291          1.134627
  11         O                -0.664593          1.220450
  12         O                -0.604742          1.018296
  13         O                -0.598217          0.881529
  14         O                -0.537050          1.374051
  15         O                -0.488005          1.346268
  16         O                -0.454708          1.306462
  17         O                -0.410996          1.008393
  18         O                -0.319840          1.055752
  19         V                 0.134746          1.161083
  20         V                 0.240523          1.162373
  21         V                 0.298638          1.115841
  22         V                 0.304274          1.078652
  23         V                 0.311774          1.142153
  24         V                 0.331993          0.996108
  25         V                 0.349167          1.066408
  26         V                 0.361544          1.489867
  27         V                 0.387135          1.081046
  28         V                 0.435123          1.375842
  29         V                 0.547405          1.538227
  30         V                 0.591241          1.478753
  31         V                 0.695561          2.285823
  32         V                 0.884319          2.189403
  33         V                 0.919843          2.381800
  34         V                 0.957862          2.303515
  35         V                 0.971398          2.513458
  36         V                 1.015629          2.760176
  37         V                 1.021228          2.659329
  38         V                 1.038895          2.588609
  39         V                 1.074492          2.651143
  40         V                 1.114157          2.749322
  41         V                 1.119246          2.633571
  42         V                 1.229742          3.043442
  43         V                 1.272997          2.898726
  44         V                 1.282800          3.041485
  45         V                 1.308962          3.080808
  46         V                 1.320372          3.127099
  47         V                 1.343283          3.256669
  48         V                 1.356070          2.598973
  49         V                 1.390777          3.380636
  50         V                 1.484713          2.656801
  51         V                 1.580348          2.927741
  52         V                 1.650727          3.106881
  53         V                 1.733877          2.998888
  54         V                 1.930237          3.221138
  55         V                 2.031557          3.349261
  56         V                 2.192887          3.344403
  57         V                 2.580126          3.493107
 Total kinetic energy from orbitals= 1.911067458021D+02
 1\1\GINC-IISERK51\SP\RHF\3-21G*\C5H6\GAUSSIAN\12-Jun-2025\0\\# hf/3-21
 g* pop=full geom=connectivity\\Optimisation\\0,1\C,0,0.518386,-1.05579
 8,-0.000268\C,0,1.508678,-0.123572,0.000299\C,0,0.531732,1.053024,-0.0
 00154\C,0,-0.556611,-0.027473,0.00001\H,0,0.46068,-2.134741,-0.000444\
 H,0,2.587851,-0.12795,0.00058\H,0,0.55964,1.685318,-0.912032\C,0,-1.87
 6033,-0.023702,0.000135\H,0,-2.458917,0.906507,0.000218\H,0,-2.465579,
 -0.949761,0.000115\H,0,0.559415,1.685748,0.911429\\Version=EM64L-G16Re
 vB.01\State=1-A\HF=-191.660689\RMSD=9.244e-09\Dipole=0.2000201,0.04534
 53,-0.0001047\Quadrupole=1.481094,1.4181262,-2.8992202,0.2836927,0.000
 2937,0.0001031\PG=C01 [X(C5H6)]\\@


 The impersonal hand of government can
 never replace the helping hand of a neighbor.
                        -- Hubert H. Humphrey
 Job cpu time:       0 days  0 hours  0 minutes  0.7 seconds.
 Elapsed time:       0 days  0 hours  0 minutes  0.7 seconds.
 File lengths (MBytes):  RWF=      6 Int=      0 D2E=      0 Chk=      1 Scr=      1
 Normal termination of Gaussian 16 at Thu Jun 12 22:29:13 2025.
