 Entering Gaussian System, Link 0=g16
 Input=/home/gaussian/Documents/Summer_Internship/Acid_Base_adduct/Adduct/PH3-AlH3/PH3_only_adduct_sp.com
 Output=/home/gaussian/Documents/Summer_Internship/Acid_Base_adduct/Adduct/PH3-AlH3/PH3_only_adduct_sp.log
 Initial command:
 /usr/local/g16/l1.exe "/home/gaussian/tmp/Gau-92470.inp" -scrdir="/home/gaussian/tmp/"
 Entering Link 1 = /usr/local/g16/l1.exe PID=     92473.
  
 Copyright (c) 1988-2017, Gaussian, Inc.  All Rights Reserved.
  
 This is part of the Gaussian(R) 16 program.  It is based on
 the Gaussian(R) 09 system (copyright 2009, Gaussian, Inc.),
 the Gaussian(R) 03 system (copyright 2003, Gaussian, Inc.),
 the Gaussian(R) 98 system (copyright 1998, Gaussian, Inc.),
 the Gaussian(R) 94 system (copyright 1995, Gaussian, Inc.),
 the Gaussian 92(TM) system (copyright 1992, Gaussian, Inc.),
 the Gaussian 90(TM) system (copyright 1990, Gaussian, Inc.),
 the Gaussian 88(TM) system (copyright 1988, Gaussian, Inc.),
 the Gaussian 86(TM) system (copyright 1986, Carnegie Mellon
 University), and the Gaussian 82(TM) system (copyright 1983,
 Carnegie Mellon University). Gaussian is a federally registered
 trademark of Gaussian, Inc.
  
 This software contains proprietary and confidential information,
 including trade secrets, belonging to Gaussian, Inc.
  
 This software is provided under written license and may be
 used, copied, transmitted, or stored only in accord with that
 written license.
  
 The following legend is applicable only to US Government
 contracts under FAR:
  
                    RESTRICTED RIGHTS LEGEND
  
 Use, reproduction and disclosure by the US Government is
 subject to restrictions as set forth in subparagraphs (a)
 and (c) of the Commercial Computer Software - Restricted
 Rights clause in FAR 52.227-19.
  
 Gaussian, Inc.
 340 Quinnipiac St., Bldg. 40, Wallingford CT 06492
  
  
 ---------------------------------------------------------------
 Warning -- This program may not be used in any manner that
 competes with the business of Gaussian, Inc. or will provide
 assistance to any competitor of Gaussian, Inc.  The licensee
 of this program is prohibited from giving any competitor of
 Gaussian, Inc. access to this program.  By using this program,
 the user acknowledges that Gaussian, Inc. is engaged in the
 business of creating and licensing software in the field of
 computational chemistry and represents and warrants to the
 licensee that it is not a competitor of Gaussian, Inc. and that
 it will not use this program in any manner prohibited above.
 ---------------------------------------------------------------
  

 Cite this work as:
 Gaussian 16, Revision B.01,
 M. J. Frisch, G. W. Trucks, H. B. Schlegel, G. E. Scuseria, 
 M. A. Robb, J. R. Cheeseman, G. Scalmani, V. Barone, 
 G. A. Petersson, H. Nakatsuji, X. Li, M. Caricato, A. V. Marenich, 
 J. Bloino, B. G. Janesko, R. Gomperts, B. Mennucci, H. P. Hratchian, 
 J. V. Ortiz, A. F. Izmaylov, J. L. Sonnenberg, D. Williams-Young, 
 F. Ding, F. Lipparini, F. Egidi, J. Goings, B. Peng, A. Petrone, 
 T. Henderson, D. Ranasinghe, V. G. Zakrzewski, J. Gao, N. Rega, 
 G. Zheng, W. Liang, M. Hada, M. Ehara, K. Toyota, R. Fukuda, 
 J. Hasegawa, M. Ishida, T. Nakajima, Y. Honda, O. Kitao, H. Nakai, 
 T. Vreven, K. Throssell, J. A. Montgomery, Jr., J. E. Peralta, 
 F. Ogliaro, M. J. Bearpark, J. J. Heyd, E. N. Brothers, K. N. Kudin, 
 V. N. Staroverov, T. A. Keith, R. Kobayashi, J. Normand, 
 K. Raghavachari, A. P. Rendell, J. C. Burant, S. S. Iyengar, 
 J. Tomasi, M. Cossi, J. M. Millam, M. Klene, C. Adamo, R. Cammi, 
 J. W. Ochterski, R. L. Martin, K. Morokuma, O. Farkas, 
 J. B. Foresman, and D. J. Fox, Gaussian, Inc., Wallingford CT, 2016.
 
 ******************************************
 Gaussian 16:  EM64L-G16RevB.01 20-Dec-2017
                17-Jun-2025 
 ******************************************
 %chk=PH3_only_adduct_sp.chk
 -------------------------------------
 # hf/3-21g pop=full geom=connectivity
 -------------------------------------
 1/38=1,57=2,172=1/1;
 2/12=2,17=6,18=5,40=1/2;
 3/5=5,11=9,25=1,30=1/1,2,3;
 4//1;
 5/5=2,38=5/2;
 6/7=3,28=1/1;
 99/5=1,9=1/99;
 -------------------
 Title Card Required
 -------------------
 Symbolic Z-matrix:
 Charge =  0 Multiplicity = 1
 P                     1.23733   0.00019  -0.00001 
 H                     1.89476   0.14458  -1.23778 
 H                     1.8919   -1.14579   0.49339 
 H                     1.89489   0.99874   0.74538 
 
                          Input orientation:                          
 ---------------------------------------------------------------------
 Center     Atomic      Atomic             Coordinates (Angstroms)
 Number     Number       Type             X           Y           Z
 ---------------------------------------------------------------------
      1         15           0        1.237325    0.000189   -0.000009
      2          1           0        1.894758    0.144576   -1.237778
      3          1           0        1.891895   -1.145786    0.493385
      4          1           0        1.894889    0.998739    0.745379
 ---------------------------------------------------------------------
                    Distance matrix (angstroms):
                    1          2          3          4
     1  P    0.000000
     2  H    1.408949   0.000000
     3  H    1.408956   2.159159   0.000000
     4  H    1.408934   2.159284   2.159282   0.000000
 Stoichiometry    H3P
 Framework group  C1[X(H3P)]
 Deg. of freedom     6
 Full point group                 C1      NOp   1
 Largest Abelian subgroup         C1      NOp   1
 Largest concise Abelian subgroup C1      NOp   1
                         Standard orientation:                         
 ---------------------------------------------------------------------
 Center     Atomic      Atomic             Coordinates (Angstroms)
 Number     Number       Type             X           Y           Z
 ---------------------------------------------------------------------
      1         15           0        0.000019   -0.000002   -0.109421
      2          1           0       -0.631048   -1.075141    0.547060
      3          1           0       -0.615798    1.083964    0.547045
      4          1           0        1.246560   -0.008795    0.547203
 ---------------------------------------------------------------------
 Rotational constants (GHZ):         142.9031544         142.8886516         107.5547585
 Standard basis: 3-21G (6D, 7F)
 There are    19 symmetry adapted cartesian basis functions of A   symmetry.
 There are    19 symmetry adapted basis functions of A   symmetry.
    19 basis functions,    36 primitive gaussians,    19 cartesian basis functions
     9 alpha electrons        9 beta electrons
       nuclear repulsion energy        17.6364873074 Hartrees.
 NAtoms=    4 NActive=    4 NUniq=    4 SFac= 1.00D+00 NAtFMM=   60 NAOKFM=F Big=F
 Integral buffers will be    131072 words long.
 Raffenetti 1 integral format.
 Two-electron integral symmetry is turned on.
 One-electron integrals computed using PRISM.
 NBasis=    19 RedAO= T EigKep=  2.58D-02  NBF=    19
 NBsUse=    19 1.00D-06 EigRej= -1.00D+00 NBFU=    19
 ExpMin= 1.23D-01 ExpMax= 1.05D+03 ExpMxC= 1.05D+03 IAcc=3 IRadAn=         5 AccDes= 0.00D+00
 Harris functional with IExCor=  205 and IRadAn=       5 diagonalized for initial guess.
 HarFok:  IExCor=  205 AccDes= 0.00D+00 IRadAn=         5 IDoV= 1 UseB2=F ITyADJ=14
 ICtDFT=  3500011 ScaDFX=  1.000000  1.000000  1.000000  1.000000
 FoFCou: FMM=F IPFlag=           0 FMFlag=      100000 FMFlg1=           0
         NFxFlg=           0 DoJE=T BraDBF=F KetDBF=T FulRan=T
         wScrn=  0.000000 ICntrl=       500 IOpCl=  0 I1Cent=   200000004 NGrid=           0
         NMat0=    1 NMatS0=      1 NMatT0=    0 NMatD0=    1 NMtDS0=    0 NMtDT0=    0
 Petite list used in FoFCou.
 Keep R1 ints in memory in canonical form, NReq=822634.
 Requested convergence on RMS density matrix=1.00D-08 within 128 cycles.
 Requested convergence on MAX density matrix=1.00D-06.
 Requested convergence on             energy=1.00D-06.
 No special actions if energy rises.
 SCF Done:  E(RHF) =  -340.703170617     A.U. after    9 cycles
            NFock=  9  Conv=0.28D-08     -V/T= 2.0006

 **********************************************************************

            Population analysis using the SCF Density.

 **********************************************************************

 Orbital symmetries:
       Occupied  (A) (A) (A) (A) (A) (A) (A) (A) (A)
       Virtual   (A) (A) (A) (A) (A) (A) (A) (A) (A) (A)
 The electronic state is 1-A.
 Alpha  occ. eigenvalues --  -79.38169  -7.45747  -5.34215  -5.34215  -5.33892
 Alpha  occ. eigenvalues --   -0.87611  -0.53667  -0.53665  -0.36902
 Alpha virt. eigenvalues --    0.18910   0.18912   0.25745   0.60050   0.60050
 Alpha virt. eigenvalues --    0.62834   0.67913   1.20350   1.26922   1.26923
     Molecular Orbital Coefficients:
                           1         2         3         4         5
                           O         O         O         O         O
     Eigenvalues --   -79.38169  -7.45747  -5.34215  -5.34215  -5.33892
   1 1   P  1S          0.98703  -0.29569  -0.00000  -0.00000   0.00442
   2        2S          0.04870   0.99719   0.00000   0.00000  -0.01541
   3        2PX        -0.00000  -0.00000   0.97176  -0.04465  -0.00008
   4        2PY         0.00000   0.00000   0.04465   0.97176   0.00001
   5        2PZ         0.00018   0.01299   0.00008  -0.00002   0.97347
   6        3S         -0.01522   0.12751  -0.00000   0.00000   0.00418
   7        3PX         0.00000  -0.00000   0.08812  -0.00405  -0.00001
   8        3PY        -0.00000   0.00000   0.00405   0.08812   0.00000
   9        3PZ        -0.00030   0.00489   0.00001  -0.00000   0.08596
  10        4S          0.00995  -0.07907   0.00000  -0.00000  -0.01129
  11        4PX        -0.00000   0.00000  -0.03048   0.00140   0.00000
  12        4PY         0.00000  -0.00000  -0.00140  -0.03048  -0.00000
  13        4PZ         0.00153  -0.01589  -0.00000   0.00000  -0.02930
  14 2   H  1S          0.00090  -0.00480   0.00338   0.00519  -0.00305
  15        2S         -0.00206   0.01833  -0.00501  -0.00770   0.00639
  16 3   H  1S          0.00090  -0.00480   0.00281  -0.00552  -0.00305
  17        2S         -0.00206   0.01833  -0.00417   0.00819   0.00639
  18 4   H  1S          0.00090  -0.00480  -0.00619   0.00033  -0.00305
  19        2S         -0.00206   0.01833   0.00918  -0.00049   0.00639
                           6         7         8         9        10
                           O         O         O         O         V
     Eigenvalues --    -0.87611  -0.53667  -0.53665  -0.36902   0.18910
   1 1   P  1S          0.06272   0.00000   0.00000  -0.02834   0.00000
   2        2S         -0.33800  -0.00001  -0.00000   0.15754  -0.00000
   3        2PX         0.00001  -0.18588   0.00686   0.00002   0.00433
   4        2PY        -0.00000  -0.00686  -0.18587  -0.00000  -0.13172
   5        2PZ        -0.05362  -0.00001   0.00000  -0.21251   0.00000
   6        3S          0.38285   0.00001  -0.00000  -0.19558   0.00000
   7        3PX        -0.00001   0.36620  -0.01352  -0.00003  -0.00773
   8        3PY         0.00000   0.01352   0.36620   0.00000   0.23509
   9        3PZ         0.10317   0.00003  -0.00000   0.41858  -0.00000
  10        4S          0.44941   0.00001   0.00000  -0.36828  -0.00000
  11        4PX        -0.00001   0.16556  -0.00611  -0.00005  -0.04393
  12        4PY         0.00000   0.00611   0.16559   0.00000   1.33664
  13        4PZ         0.05519   0.00001  -0.00000   0.48804  -0.00002
  14 2   H  1S          0.12934  -0.13627  -0.21374   0.07932   0.11088
  15        2S          0.06167  -0.19924  -0.31253   0.10581   1.01284
  16 3   H  1S          0.12933  -0.11698   0.22488   0.07932  -0.11611
  17        2S          0.06167  -0.17103   0.32881   0.10581  -1.06065
  18 4   H  1S          0.12934   0.25324  -0.01114   0.07933   0.00523
  19        2S          0.06167   0.37026  -0.01629   0.10583   0.04781
                          11        12        13        14        15
                           V         V         V         V         V
     Eigenvalues --     0.18912   0.25745   0.60050   0.60050   0.62834
   1 1   P  1S          0.00000   0.04598   0.00001  -0.00000  -0.00822
   2        2S         -0.00002  -0.26928  -0.00001   0.00000  -0.01054
   3        2PX        -0.13172   0.00003  -0.34017   0.01919  -0.00006
   4        2PY        -0.00433  -0.00000  -0.01919  -0.34018   0.00001
   5        2PZ        -0.00002  -0.09837  -0.00005   0.00001   0.31937
   6        3S          0.00001   0.33491   0.00021  -0.00006  -0.58605
   7        3PX         0.23508  -0.00005   1.26280  -0.07123   0.00024
   8        3PY         0.00773   0.00000   0.07123   1.26281  -0.00005
   9        3PZ         0.00004   0.21804   0.00020  -0.00005  -1.21675
  10        4S          0.00017   1.79431  -0.00033   0.00010   1.37889
  11        4PX         1.33679  -0.00029  -1.19277   0.06728  -0.00033
  12        4PY         0.04394   0.00000  -0.06728  -1.19275   0.00006
  13        4PZ         0.00022   1.07324  -0.00026   0.00008   1.56267
  14 2   H  1S          0.07004  -0.05356  -0.09134  -0.13733  -0.13425
  15        2S          0.63994  -1.17437   0.02607   0.03907  -0.41728
  16 3   H  1S          0.06098  -0.05356  -0.07323   0.14776  -0.13425
  17        2S          0.55712  -1.17435   0.02092  -0.04209  -0.41728
  18 4   H  1S         -0.13105  -0.05355   0.16463  -0.01046  -0.13423
  19        2S         -1.19733  -1.17418  -0.04677   0.00295  -0.41723
                          16        17        18        19
                           V         V         V         V
     Eigenvalues --     0.67913   1.20350   1.26922   1.26923
   1 1   P  1S         -0.05406  -0.02941  -0.00000  -0.00000
   2        2S          0.13897   0.10257   0.00000   0.00000
   3        2PX        -0.00002  -0.00001   0.00543  -0.14832
   4        2PY         0.00000   0.00000  -0.14831  -0.00543
   5        2PZ        -0.12070   0.11306   0.00000  -0.00001
   6        3S         -2.01350  -0.81424  -0.00002  -0.00001
   7        3PX         0.00008   0.00003  -0.01590   0.43460
   8        3PY        -0.00002  -0.00001   0.43456   0.01590
   9        3PZ         0.37772  -0.34543  -0.00001   0.00003
  10        4S          3.42307   2.23161   0.00004   0.00005
  11        4PX        -0.00025  -0.00010   0.02968  -0.81130
  12        4PY         0.00003   0.00002  -0.81123  -0.02968
  13        4PZ         0.51518   0.86679   0.00003  -0.00005
  14 2   H  1S         -0.13530   0.73647   0.91842   0.58513
  15        2S         -0.84713  -1.27042  -1.19639  -0.76222
  16 3   H  1S         -0.13530   0.73649  -0.96590   0.50286
  17        2S         -0.84713  -1.27045   1.25822  -0.65505
  18 4   H  1S         -0.13529   0.73656   0.04751  -1.08788
  19        2S         -0.84706  -1.27054  -0.06189   1.41713
     Density Matrix:
                           1         2         3         4         5
   1 1   P  1S          2.13284
   2        2S         -0.54503   2.27210
   3        2PX        -0.00000   0.00000   1.96182
   4        2PY         0.00000  -0.00000   0.00000   1.96182
   5        2PZ         0.00659  -0.03479  -0.00000   0.00000   1.99168
   6        3S         -0.04630  -0.06773  -0.00001   0.00000   0.05351
   7        3PX         0.00000  -0.00001   0.03530  -0.00000   0.00000
   8        3PY        -0.00000   0.00000  -0.00000   0.03530  -0.00000
   9        3PZ        -0.01350   0.06921   0.00001  -0.00000  -0.02148
  10        4S          0.14355  -0.57621  -0.00001  -0.00000   0.08430
  11        4PX        -0.00000  -0.00000  -0.12100   0.00000   0.00002
  12        4PY        -0.00000   0.00000   0.00000  -0.12101  -0.00000
  13        4PZ        -0.00859   0.08583   0.00001  -0.00000  -0.27079
  14 2   H  1S          0.01632  -0.07183   0.05383   0.09172  -0.05364
  15        2S         -0.01311   0.02782   0.06073   0.10350  -0.03866
  16 3   H  1S          0.01632  -0.07183   0.05253  -0.09247  -0.05364
  17        2S         -0.01311   0.02782   0.05927  -0.10435  -0.03866
  18 4   H  1S          0.01632  -0.07184  -0.10634   0.00075  -0.05365
  19        2S         -0.01311   0.02782  -0.11999   0.00085  -0.03868
                           6         7         8         9        10
   6        3S          0.40266
   7        3PX         0.00001   0.28414
   8        3PY        -0.00000   0.00000   0.28413
   9        3PZ        -0.08276  -0.00001   0.00000   0.38653
  10        4S          0.46760   0.00002  -0.00000  -0.21830   0.68816
  11        4PX         0.00001   0.11604  -0.00000  -0.00003   0.00003
  12        4PY        -0.00000  -0.00000   0.11606   0.00000  -0.00000
  13        4PZ        -0.15298  -0.00003   0.00000   0.41476  -0.30666
  14 2   H  1S          0.06673  -0.09348  -0.15929   0.09251   0.05867
  15        2S          0.01062  -0.13831  -0.23568   0.10257  -0.02560
  16 3   H  1S          0.06673  -0.09122   0.16059   0.09251   0.05867
  17        2S          0.01062  -0.13497   0.23761   0.10257  -0.02559
  18 4   H  1S          0.06673   0.18467  -0.00130   0.09254   0.05867
  19        2S          0.01062   0.27324  -0.00193   0.10262  -0.02560
                          11        12        13        14        15
  11        4PX         0.05676
  12        4PY        -0.00000   0.05677
  13        4PZ        -0.00004   0.00000   0.48468
  14 2   H  1S         -0.04271  -0.07278   0.09203   0.17469
  15        2S         -0.06188  -0.10545   0.10911   0.22031   0.30567
  16 3   H  1S         -0.04168   0.07337   0.09203  -0.01819  -0.06137
  17        2S         -0.06039   0.10632   0.10911  -0.06137  -0.10670
  18 4   H  1S          0.08436  -0.00060   0.09205  -0.01819  -0.06137
  19        2S          0.12223  -0.00086   0.10915  -0.06137  -0.10669
                          16        17        18        19
  16 3   H  1S          0.17469
  17        2S          0.22030   0.30567
  18 4   H  1S         -0.01819  -0.06137   0.17469
  19        2S         -0.06137  -0.10669   0.22030   0.30566
    Full Mulliken population analysis:
                           1         2         3         4         5
   1 1   P  1S          2.13284
   2        2S         -0.13691   2.27210
   3        2PX         0.00000   0.00000   1.96182
   4        2PY         0.00000   0.00000  -0.00000   1.96182
   5        2PZ         0.00000   0.00000  -0.00000  -0.00000   1.99168
   6        3S         -0.00157  -0.02394   0.00000   0.00000   0.00000
   7        3PX         0.00000   0.00000   0.01068   0.00000   0.00000
   8        3PY         0.00000   0.00000   0.00000   0.01068   0.00000
   9        3PZ         0.00000   0.00000   0.00000   0.00000  -0.00650
  10        4S          0.00472  -0.14694   0.00000   0.00000   0.00000
  11        4PX         0.00000   0.00000  -0.00895  -0.00000   0.00000
  12        4PY         0.00000   0.00000  -0.00000  -0.00895   0.00000
  13        4PZ         0.00000   0.00000   0.00000   0.00000  -0.02003
  14 2   H  1S          0.00001  -0.00055  -0.00026  -0.00074  -0.00027
  15        2S         -0.00016   0.00275  -0.00106  -0.00307  -0.00070
  16 3   H  1S          0.00001  -0.00055  -0.00024  -0.00076  -0.00027
  17        2S         -0.00016   0.00275  -0.00101  -0.00313  -0.00070
  18 4   H  1S          0.00001  -0.00055  -0.00100  -0.00000  -0.00027
  19        2S         -0.00016   0.00275  -0.00413  -0.00000  -0.00070
                           6         7         8         9        10
   6        3S          0.40266
   7        3PX         0.00000   0.28414
   8        3PY         0.00000  -0.00000   0.28413
   9        3PZ         0.00000  -0.00000  -0.00000   0.38653
  10        4S          0.38997   0.00000   0.00000   0.00000   0.68816
  11        4PX         0.00000   0.07503   0.00000  -0.00000   0.00000
  12        4PY         0.00000   0.00000   0.07504  -0.00000   0.00000
  13        4PZ         0.00000  -0.00000  -0.00000   0.26819   0.00000
  14 2   H  1S          0.01012   0.01166   0.03384   0.01200   0.01432
  15        2S          0.00428   0.02346   0.06810   0.01810  -0.01475
  16 3   H  1S          0.01012   0.01110   0.03440   0.01200   0.01432
  17        2S          0.00428   0.02234   0.06922   0.01810  -0.01475
  18 4   H  1S          0.01012   0.04549   0.00000   0.01201   0.01432
  19        2S          0.00428   0.09154   0.00000   0.01811  -0.01475
                          11        12        13        14        15
  11        4PX         0.05676
  12        4PY         0.00000   0.05677
  13        4PZ        -0.00000  -0.00000   0.48468
  14 2   H  1S          0.00763   0.02214   0.01709   0.17469
  15        2S          0.01785   0.05181   0.03274   0.14229   0.30567
  16 3   H  1S          0.00726   0.02250   0.01709  -0.00002  -0.00321
  17        2S          0.01700   0.05267   0.03274  -0.00321  -0.02322
  18 4   H  1S          0.02975   0.00000   0.01710  -0.00002  -0.00321
  19        2S          0.06963   0.00000   0.03276  -0.00321  -0.02322
                          16        17        18        19
  16 3   H  1S          0.17469
  17        2S          0.14229   0.30567
  18 4   H  1S         -0.00002  -0.00321   0.17469
  19        2S         -0.00321  -0.02322   0.14229   0.30566
     Gross orbital populations:
                           1
   1 1   P  1S          1.99863
   2        2S          1.97089
   3        2PX         1.95585
   4        2PY         1.95585
   5        2PZ         1.96226
   6        3S          0.81034
   7        3PX         0.57543
   8        3PY         0.57542
   9        3PZ         0.73854
  10        4S          0.93462
  11        4PX         0.27195
  12        4PY         0.27199
  13        4PZ         0.88235
  14 2   H  1S          0.43753
  15        2S          0.59444
  16 3   H  1S          0.43753
  17        2S          0.59444
  18 4   H  1S          0.43753
  19        2S          0.59443
          Condensed to atoms (all electrons):
               1          2          3          4
     1  P   13.925156   0.326315   0.326317   0.326313
     2  H    0.326315   0.764949  -0.029653  -0.029644
     3  H    0.326317  -0.029653   0.764947  -0.029645
     4  H    0.326313  -0.029644  -0.029645   0.764941
 Mulliken charges:
               1
     1  P    0.095899
     2  H   -0.031967
     3  H   -0.031966
     4  H   -0.031965
 Sum of Mulliken charges =   0.00000
 Mulliken charges with hydrogens summed into heavy atoms:
               1
     1  P    0.000000
 Electronic spatial extent (au):  <R**2>=             56.6062
 Charge=              0.0000 electrons
 Dipole moment (field-independent basis, Debye):
    X=             -0.0000    Y=              0.0000    Z=              1.3664  Tot=              1.3664
 Quadrupole moment (field-independent basis, Debye-Ang):
   XX=            -15.1577   YY=            -15.1580   ZZ=            -18.2518
   XY=              0.0000   XZ=              0.0003   YZ=             -0.0000
 Traceless Quadrupole moment (field-independent basis, Debye-Ang):
   XX=              1.0314   YY=              1.0312   ZZ=             -2.0626
   XY=              0.0000   XZ=              0.0003   YZ=             -0.0000
 Octapole moment (field-independent basis, Debye-Ang**2):
  XXX=             -0.4505  YYY=             -0.0096  ZZZ=              2.1229  XYY=              0.4509
  XXY=              0.0095  XXZ=              0.0009  XZZ=             -0.0002  YZZ=              0.0000
  YYZ=              0.0010  XYZ=             -0.0000
 Hexadecapole moment (field-independent basis, Debye-Ang**3):
 XXXX=            -32.8666 YYYY=            -32.8656 ZZZZ=            -34.6952 XXXY=              0.0000
 XXXZ=              0.0218 YYYX=              0.0000 YYYZ=              0.0004 ZZZX=              0.0005
 ZZZY=             -0.0001 XXYY=            -10.9553 XXZZ=            -11.1803 YYZZ=            -11.1801
 XXYZ=             -0.0005 YYXZ=             -0.0212 ZZXY=              0.0000
 N-N= 1.763648730739D+01 E-N=-8.468330344532D+02  KE= 3.405153671574D+02
 Orbital energies and kinetic energies (alpha):
                                 1                 2
   1         O               -79.381689        105.411025
   2         O                -7.457470         16.233049
   3         O                -5.342148         14.562302
   4         O                -5.342148         14.562305
   5         O                -5.338916         14.582659
   6         O                -0.876109          1.498861
   7         O                -0.536674          1.034875
   8         O                -0.536651          1.034861
   9         O                -0.369019          1.337748
  10         V                 0.189096          0.804949
  11         V                 0.189116          0.804934
  12         V                 0.257452          1.414755
  13         V                 0.600496          2.461268
  14         V                 0.600504          2.461317
  15         V                 0.628340          2.290840
  16         V                 0.679125          1.835337
  17         V                 1.203495          2.579465
  18         V                 1.269216          2.516925
  19         V                 1.269233          2.517019
 Total kinetic energy from orbitals= 3.405153671574D+02
 1\1\GINC-IISERK51\SP\RHF\3-21G\H3P1\GAUSSIAN\17-Jun-2025\0\\# hf/3-21g
  pop=full geom=connectivity\\Title Card Required\\0,1\P,0,1.237325,0.0
 00189,-0.000009\H,0,1.894758,0.144576,-1.237778\H,0,1.891895,-1.145786
 ,0.493385\H,0,1.894889,0.998739,0.745379\\Version=EM64L-G16RevB.01\Sta
 te=1-A\HF=-340.7031706\RMSD=2.837e-09\Dipole=0.5375932,-0.0007617,0.00
 03173\Quadrupole=-1.5334919,0.7667678,0.766724,0.0033874,-0.0012831,0.
 0001005\PG=C01 [X(H3P1)]\\@


 The most important thing in communication is to hear what isn't being said.
 -- Peter F. Drucker
 Job cpu time:       0 days  0 hours  0 minutes  0.4 seconds.
 Elapsed time:       0 days  0 hours  0 minutes  0.4 seconds.
 File lengths (MBytes):  RWF=      6 Int=      0 D2E=      0 Chk=      1 Scr=      1
 Normal termination of Gaussian 16 at Tue Jun 17 15:32:22 2025.
