 Entering Gaussian System, Link 0=g16
 Input=/home/gaussian/Documents/Summer_Internship/Acid_Base_adduct/Adduct/PH3-AlH3/PH3_AlH3_adduct_sp.com
 Output=/home/gaussian/Documents/Summer_Internship/Acid_Base_adduct/Adduct/PH3-AlH3/PH3_AlH3_adduct_sp.log
 Initial command:
 /usr/local/g16/l1.exe "/home/gaussian/tmp/Gau-92393.inp" -scrdir="/home/gaussian/tmp/"
 Entering Link 1 = /usr/local/g16/l1.exe PID=     92396.
  
 Copyright (c) 1988-2017, Gaussian, Inc.  All Rights Reserved.
  
 This is part of the Gaussian(R) 16 program.  It is based on
 the Gaussian(R) 09 system (copyright 2009, Gaussian, Inc.),
 the Gaussian(R) 03 system (copyright 2003, Gaussian, Inc.),
 the Gaussian(R) 98 system (copyright 1998, Gaussian, Inc.),
 the Gaussian(R) 94 system (copyright 1995, Gaussian, Inc.),
 the Gaussian 92(TM) system (copyright 1992, Gaussian, Inc.),
 the Gaussian 90(TM) system (copyright 1990, Gaussian, Inc.),
 the Gaussian 88(TM) system (copyright 1988, Gaussian, Inc.),
 the Gaussian 86(TM) system (copyright 1986, Carnegie Mellon
 University), and the Gaussian 82(TM) system (copyright 1983,
 Carnegie Mellon University). Gaussian is a federally registered
 trademark of Gaussian, Inc.
  
 This software contains proprietary and confidential information,
 including trade secrets, belonging to Gaussian, Inc.
  
 This software is provided under written license and may be
 used, copied, transmitted, or stored only in accord with that
 written license.
  
 The following legend is applicable only to US Government
 contracts under FAR:
  
                    RESTRICTED RIGHTS LEGEND
  
 Use, reproduction and disclosure by the US Government is
 subject to restrictions as set forth in subparagraphs (a)
 and (c) of the Commercial Computer Software - Restricted
 Rights clause in FAR 52.227-19.
  
 Gaussian, Inc.
 340 Quinnipiac St., Bldg. 40, Wallingford CT 06492
  
  
 ---------------------------------------------------------------
 Warning -- This program may not be used in any manner that
 competes with the business of Gaussian, Inc. or will provide
 assistance to any competitor of Gaussian, Inc.  The licensee
 of this program is prohibited from giving any competitor of
 Gaussian, Inc. access to this program.  By using this program,
 the user acknowledges that Gaussian, Inc. is engaged in the
 business of creating and licensing software in the field of
 computational chemistry and represents and warrants to the
 licensee that it is not a competitor of Gaussian, Inc. and that
 it will not use this program in any manner prohibited above.
 ---------------------------------------------------------------
  

 Cite this work as:
 Gaussian 16, Revision B.01,
 M. J. Frisch, G. W. Trucks, H. B. Schlegel, G. E. Scuseria, 
 M. A. Robb, J. R. Cheeseman, G. Scalmani, V. Barone, 
 G. A. Petersson, H. Nakatsuji, X. Li, M. Caricato, A. V. Marenich, 
 J. Bloino, B. G. Janesko, R. Gomperts, B. Mennucci, H. P. Hratchian, 
 J. V. Ortiz, A. F. Izmaylov, J. L. Sonnenberg, D. Williams-Young, 
 F. Ding, F. Lipparini, F. Egidi, J. Goings, B. Peng, A. Petrone, 
 T. Henderson, D. Ranasinghe, V. G. Zakrzewski, J. Gao, N. Rega, 
 G. Zheng, W. Liang, M. Hada, M. Ehara, K. Toyota, R. Fukuda, 
 J. Hasegawa, M. Ishida, T. Nakajima, Y. Honda, O. Kitao, H. Nakai, 
 T. Vreven, K. Throssell, J. A. Montgomery, Jr., J. E. Peralta, 
 F. Ogliaro, M. J. Bearpark, J. J. Heyd, E. N. Brothers, K. N. Kudin, 
 V. N. Staroverov, T. A. Keith, R. Kobayashi, J. Normand, 
 K. Raghavachari, A. P. Rendell, J. C. Burant, S. S. Iyengar, 
 J. Tomasi, M. Cossi, J. M. Millam, M. Klene, C. Adamo, R. Cammi, 
 J. W. Ochterski, R. L. Martin, K. Morokuma, O. Farkas, 
 J. B. Foresman, and D. J. Fox, Gaussian, Inc., Wallingford CT, 2016.
 
 ******************************************
 Gaussian 16:  EM64L-G16RevB.01 20-Dec-2017
                17-Jun-2025 
 ******************************************
 %chk=PH3_AlH3_adduct_sp.chk
 -------------------------------------
 # hf/3-21g pop=full geom=connectivity
 -------------------------------------
 1/38=1,57=2,172=1/1;
 2/12=2,17=6,18=5,40=1/2;
 3/5=5,11=9,25=1,30=1/1,2,3;
 4//1;
 5/5=2,38=5/2;
 6/7=3,28=1/1;
 99/5=1,9=1/99;
 -------------------
 Title Card Required
 -------------------
 Symbolic Z-matrix:
 Charge =  0 Multiplicity = 1
 P                     1.23733   0.00019  -0.00001 
 H                     1.89476   0.1437   -1.23788 
 H                     1.8919   -1.14544   0.49419 
 H                     1.89489   0.99926   0.74468 
 Al                   -1.47998   0.00003  -0.00007 
 H                    -1.66583  -1.28139  -0.95529 
 H                    -1.66775  -0.18724   1.58693 
 H                    -1.66805   1.46787  -0.63162 
 
                          Input orientation:                          
 ---------------------------------------------------------------------
 Center     Atomic      Atomic             Coordinates (Angstroms)
 Number     Number       Type             X           Y           Z
 ---------------------------------------------------------------------
      1         15           0        1.237325    0.000189   -0.000009
      2          1           0        1.894758    0.143704   -1.237879
      3          1           0        1.891895   -1.145438    0.494192
      4          1           0        1.894889    0.999264    0.744676
      5         13           0       -1.479983    0.000031   -0.000066
      6          1           0       -1.665826   -1.281386   -0.955290
      7          1           0       -1.667748   -0.187238    1.586925
      8          1           0       -1.668053    1.467865   -0.631623
 ---------------------------------------------------------------------
                    Distance matrix (angstroms):
                    1          2          3          4          5
     1  P    0.000000
     2  H    1.408949   0.000000
     3  H    1.408956   2.159158   0.000000
     4  H    1.408935   2.159284   2.159282   0.000000
     5  Al   2.717308   3.597457   3.595268   3.597620   0.000000
     6  H    3.314103   3.845581   3.844068   4.557405   1.609043
     7  H    3.315560   4.558562   3.844902   3.848318   1.608995
     8  H    3.315755   3.848970   4.557416   3.848161   1.608966
                    6          7          8
     6  H    0.000000
     7  H    2.767674   0.000000
     8  H    2.768239   2.767909   0.000000
 Stoichiometry    AlH6P
 Framework group  C1[X(AlH6P)]
 Deg. of freedom    18
 Full point group                 C1      NOp   1
 Largest Abelian subgroup         C1      NOp   1
 Largest concise Abelian subgroup C1      NOp   1
                         Standard orientation:                         
 ---------------------------------------------------------------------
 Center     Atomic      Atomic             Coordinates (Angstroms)
 Number     Number       Type             X           Y           Z
 ---------------------------------------------------------------------
      1         15           0        1.237325    0.000189   -0.000009
      2          1           0        1.894758    0.144576   -1.237778
      3          1           0        1.891895   -1.145786    0.493385
      4          1           0        1.894889    0.998739    0.745379
      5         13           0       -1.479983    0.000031   -0.000066
      6          1           0       -1.665826   -1.280713   -0.956193
      7          1           0       -1.667748   -0.188356    1.586792
      8          1           0       -1.668053    1.468309   -0.630589
 ---------------------------------------------------------------------
 Rotational constants (GHZ):          40.6899267           3.8296999           3.8296450
 Standard basis: 3-21G (6D, 7F)
 There are    38 symmetry adapted cartesian basis functions of A   symmetry.
 There are    38 symmetry adapted basis functions of A   symmetry.
    38 basis functions,    72 primitive gaussians,    38 cartesian basis functions
    17 alpha electrons       17 beta electrons
       nuclear repulsion energy        83.1061848948 Hartrees.
 NAtoms=    8 NActive=    8 NUniq=    8 SFac= 1.00D+00 NAtFMM=   60 NAOKFM=F Big=F
 Integral buffers will be    131072 words long.
 Raffenetti 1 integral format.
 Two-electron integral symmetry is turned on.
 One-electron integrals computed using PRISM.
 NBasis=    38 RedAO= T EigKep=  2.23D-02  NBF=    38
 NBsUse=    38 1.00D-06 EigRej= -1.00D+00 NBFU=    38
 ExpMin= 6.39D-02 ExpMax= 1.05D+03 ExpMxC= 1.05D+03 IAcc=3 IRadAn=         5 AccDes= 0.00D+00
 Harris functional with IExCor=  205 and IRadAn=       5 diagonalized for initial guess.
 HarFok:  IExCor=  205 AccDes= 0.00D+00 IRadAn=         5 IDoV= 1 UseB2=F ITyADJ=14
 ICtDFT=  3500011 ScaDFX=  1.000000  1.000000  1.000000  1.000000
 FoFCou: FMM=F IPFlag=           0 FMFlag=      100000 FMFlg1=           0
         NFxFlg=           0 DoJE=T BraDBF=F KetDBF=T FulRan=T
         wScrn=  0.000000 ICntrl=       500 IOpCl=  0 I1Cent=   200000004 NGrid=           0
         NMat0=    1 NMatS0=      1 NMatT0=    0 NMatD0=    1 NMtDS0=    0 NMtDT0=    0
 Petite list used in FoFCou.
 Keep R1 ints in memory in canonical form, NReq=1087876.
 Requested convergence on RMS density matrix=1.00D-08 within 128 cycles.
 Requested convergence on MAX density matrix=1.00D-06.
 Requested convergence on             energy=1.00D-06.
 No special actions if energy rises.
 SCF Done:  E(RHF) =  -583.008855075     A.U. after    9 cycles
            NFock=  9  Conv=0.64D-08     -V/T= 2.0009

 **********************************************************************

            Population analysis using the SCF Density.

 **********************************************************************

 Orbital symmetries:
       Occupied  (A) (A) (A) (A) (A) (A) (A) (A) (A) (A) (A) (A)
                 (A) (A) (A) (A) (A)
       Virtual   (A) (A) (A) (A) (A) (A) (A) (A) (A) (A) (A) (A)
                 (A) (A) (A) (A) (A) (A) (A) (A) (A)
 The electronic state is 1-A.
 Alpha  occ. eigenvalues --  -79.43696 -58.02619  -7.51234  -5.39707  -5.39707
 Alpha  occ. eigenvalues --   -5.39543  -4.83676  -3.14067  -3.13969  -3.13969
 Alpha  occ. eigenvalues --   -0.92459  -0.57885  -0.57882  -0.56456  -0.42864
 Alpha  occ. eigenvalues --   -0.39738  -0.39734
 Alpha virt. eigenvalues --    0.10585   0.14198   0.14204   0.20824   0.20826
 Alpha virt. eigenvalues --    0.22130   0.29095   0.32525   0.40827   0.41373
 Alpha virt. eigenvalues --    0.41377   0.58136   0.58139   0.59685   0.82852
 Alpha virt. eigenvalues --    1.17620   1.23090   1.23093   1.41344   1.41350
 Alpha virt. eigenvalues --    1.44948
     Molecular Orbital Coefficients:
                           1         2         3         4         5
                           O         O         O         O         O
     Eigenvalues --   -79.43696 -58.02619  -7.51234  -5.39707  -5.39707
   1 1   P  1S          0.98702  -0.00002  -0.29558   0.00000  -0.00000
   2        2S          0.04869  -0.00004   0.99732  -0.00001   0.00000
   3        2PX         0.00005  -0.00007   0.00936   0.00189  -0.00096
   4        2PY        -0.00000  -0.00000  -0.00001   0.96686  -0.10634
   5        2PZ         0.00000   0.00000   0.00000   0.10634   0.96686
   6        3S         -0.01640  -0.00163   0.13641  -0.00001   0.00001
   7        3PX         0.00027   0.00059  -0.00006   0.00018  -0.00009
   8        3PY         0.00000   0.00000  -0.00001   0.08842  -0.00972
   9        3PZ        -0.00000  -0.00000   0.00000   0.00973   0.08842
  10        4S          0.01235   0.00317  -0.09740   0.00002  -0.00001
  11        4PX        -0.00026  -0.00166  -0.00186  -0.00008   0.00005
  12        4PY        -0.00000  -0.00000   0.00003  -0.03350   0.00368
  13        4PZ         0.00000   0.00000  -0.00001  -0.00369  -0.03350
  14 2   H  1S          0.00083   0.00004  -0.00424  -0.00005   0.00628
  15        2S         -0.00193  -0.00038   0.01722   0.00008  -0.01061
  16 3   H  1S          0.00083   0.00004  -0.00424   0.00546  -0.00310
  17        2S         -0.00193  -0.00039   0.01723  -0.00922   0.00523
  18 4   H  1S          0.00083   0.00004  -0.00424  -0.00541  -0.00318
  19        2S         -0.00193  -0.00039   0.01722   0.00915   0.00537
  20 5   Al 1S         -0.00000   0.98854   0.00006  -0.00000   0.00000
  21        2S          0.00015   0.04420  -0.00123   0.00000  -0.00000
  22        2PX         0.00002   0.00005  -0.00020   0.00000  -0.00000
  23        2PY        -0.00000  -0.00000   0.00000  -0.00004   0.00000
  24        2PZ         0.00000   0.00000  -0.00000  -0.00000  -0.00004
  25        3S          0.00043  -0.01056  -0.00413  -0.00000   0.00000
  26        3PX        -0.00020  -0.00012   0.00127  -0.00001   0.00000
  27        3PY         0.00000   0.00000  -0.00000   0.00018  -0.00002
  28        3PZ        -0.00000  -0.00000   0.00000   0.00002   0.00018
  29        4S         -0.00305   0.00105   0.02493  -0.00002   0.00002
  30        4PX        -0.00150  -0.00100   0.01191  -0.00001   0.00001
  31        4PY        -0.00000   0.00000  -0.00000   0.00588  -0.00065
  32        4PZ        -0.00000  -0.00000   0.00000   0.00064   0.00588
  33 6   H  1S         -0.00007   0.00066   0.00075  -0.00002  -0.00001
  34        2S          0.00068   0.00098  -0.00596   0.00179   0.00105
  35 7   H  1S         -0.00007   0.00066   0.00075   0.00000   0.00003
  36        2S          0.00068   0.00098  -0.00596   0.00002  -0.00210
  37 8   H  1S         -0.00007   0.00066   0.00075   0.00003  -0.00002
  38        2S          0.00068   0.00098  -0.00596  -0.00182   0.00103
                           6         7         8         9        10
                           O         O         O         O         O
     Eigenvalues --    -5.39543  -4.83676  -3.14067  -3.13969  -3.13969
   1 1   P  1S          0.00294   0.00005   0.00004   0.00000  -0.00000
   2        2S         -0.01059   0.00005   0.00049  -0.00000  -0.00000
   3        2PX         0.97276   0.00004  -0.00034   0.00000  -0.00000
   4        2PY        -0.00198   0.00000   0.00000   0.00001  -0.00005
   5        2PZ         0.00075  -0.00000  -0.00000  -0.00005  -0.00001
   6        3S         -0.00270   0.00312   0.00587  -0.00000  -0.00001
   7        3PX         0.09008  -0.00156  -0.00014  -0.00000   0.00000
   8        3PY        -0.00018  -0.00000  -0.00000  -0.00005   0.00036
   9        3PZ         0.00007   0.00000   0.00000   0.00036   0.00004
  10        4S          0.00145  -0.00400  -0.01082  -0.00000   0.00003
  11        4PX        -0.04083   0.00310   0.00386  -0.00000  -0.00000
  12        4PY         0.00006   0.00002   0.00004   0.00020  -0.00160
  13        4PZ        -0.00002  -0.00001  -0.00001  -0.00160  -0.00020
  14 2   H  1S         -0.00341  -0.00050  -0.00090   0.00067   0.00001
  15        2S          0.00753   0.00179   0.00509  -0.00302  -0.00003
  16 3   H  1S         -0.00342  -0.00051  -0.00091  -0.00034   0.00058
  17        2S          0.00753   0.00182   0.00514   0.00153  -0.00262
  18 4   H  1S         -0.00341  -0.00050  -0.00090  -0.00033  -0.00058
  19        2S          0.00753   0.00179   0.00509   0.00149   0.00262
  20 5   Al 1S         -0.00004  -0.28419   0.00098  -0.00000   0.00000
  21        2S          0.00043   1.01092  -0.00366   0.00000  -0.00000
  22        2PX        -0.00004   0.00292   0.97834  -0.00064  -0.00012
  23        2PY         0.00000   0.00000   0.00004  -0.12100   0.97095
  24        2PZ         0.00000  -0.00000   0.00065   0.97095   0.12100
  25        3S          0.00037   0.08957   0.00103  -0.00000   0.00000
  26        3PX        -0.00186   0.00176   0.08834  -0.00006  -0.00001
  27        3PY        -0.00000  -0.00000   0.00000  -0.01083   0.08688
  28        3PZ        -0.00000   0.00000   0.00006   0.08687   0.01083
  29        4S         -0.01548  -0.03046   0.00258   0.00000  -0.00001
  30        4PX        -0.00829  -0.00065  -0.02971   0.00002  -0.00001
  31        4PY        -0.00001  -0.00000  -0.00001   0.00310  -0.02491
  32        4PZ         0.00000   0.00000  -0.00002  -0.02492  -0.00311
  33 6   H  1S         -0.00002  -0.00312   0.00061   0.00242   0.00426
  34        2S          0.00252  -0.00085  -0.00059   0.00185   0.00326
  35 7   H  1S         -0.00002  -0.00312   0.00062  -0.00490  -0.00003
  36        2S          0.00252  -0.00085  -0.00059  -0.00374  -0.00002
  37 8   H  1S         -0.00002  -0.00312   0.00062   0.00247  -0.00422
  38        2S          0.00252  -0.00085  -0.00058   0.00189  -0.00323
                          11        12        13        14        15
                           O         O         O         O         O
     Eigenvalues --    -0.92459  -0.57885  -0.57882  -0.56456  -0.42864
   1 1   P  1S          0.06377  -0.00001   0.00002   0.00516  -0.02314
   2        2S         -0.34471   0.00004  -0.00010  -0.02932   0.13128
   3        2PX        -0.04457  -0.00027   0.00061   0.09489  -0.19174
   4        2PY         0.00007  -0.13288   0.13782  -0.00083   0.00028
   5        2PZ        -0.00003  -0.13782  -0.13288   0.00028  -0.00010
   6        3S          0.38162  -0.00003   0.00007   0.02939  -0.13324
   7        3PX         0.08884   0.00054  -0.00121  -0.18861   0.37714
   8        3PY        -0.00014   0.26496  -0.27482   0.00167  -0.00056
   9        3PZ         0.00005   0.27482   0.26496  -0.00056   0.00020
  10        4S          0.49373  -0.00015   0.00036   0.08344  -0.37597
  11        4PX         0.02289   0.00038  -0.00085  -0.16351   0.46126
  12        4PY        -0.00010   0.12909  -0.13391   0.00084  -0.00054
  13        4PZ         0.00004   0.13390   0.12911  -0.00029   0.00019
  14 2   H  1S          0.12595  -0.15922  -0.19443  -0.04083   0.07091
  15        2S          0.05363  -0.21663  -0.26452  -0.04696   0.09009
  16 3   H  1S          0.12595  -0.08855   0.23493  -0.04224   0.07092
  17        2S          0.05358  -0.12048   0.31966  -0.04900   0.09023
  18 4   H  1S          0.12595   0.24797  -0.04095  -0.04068   0.07090
  19        2S          0.05362   0.33735  -0.05569  -0.04674   0.09007
  20 5   Al 1S          0.00332  -0.00008   0.00016   0.04596   0.01707
  21        2S         -0.01416   0.00038  -0.00080  -0.22995  -0.08923
  22        2PX        -0.01140   0.00003  -0.00006  -0.00830   0.06411
  23        2PY         0.00000  -0.00636   0.00660  -0.00002  -0.00005
  24        2PZ        -0.00000  -0.00659  -0.00635   0.00001  -0.00015
  25        3S          0.03231  -0.00054   0.00111   0.31720   0.11070
  26        3PX         0.01913  -0.00004   0.00008   0.01113  -0.10795
  27        3PY         0.00000   0.01140  -0.01182   0.00004   0.00010
  28        3PZ        -0.00000   0.01181   0.01139  -0.00002   0.00027
  29        4S         -0.03584  -0.00029   0.00060   0.19746   0.17870
  30        4PX        -0.02521   0.00001  -0.00001   0.00372   0.01515
  31        4PY         0.00001   0.00060  -0.00064   0.00000   0.00001
  32        4PZ        -0.00000   0.00062   0.00061  -0.00000   0.00009
  33 6   H  1S          0.00275  -0.00931   0.00189   0.11781   0.07764
  34        2S          0.01082  -0.01582   0.00310   0.16665   0.12827
  35 7   H  1S          0.00274   0.00566   0.00754   0.11781   0.07811
  36        2S          0.01081   0.00968   0.01274   0.16664   0.12912
  37 8   H  1S          0.00274   0.00308  -0.00824   0.11786   0.07793
  38        2S          0.01080   0.00529  -0.01414   0.16674   0.12881
                          16        17        18        19        20
                           O         O         V         V         V
     Eigenvalues --    -0.39738  -0.39734   0.10585   0.14198   0.14204
   1 1   P  1S          0.00001   0.00003  -0.02403   0.00003  -0.00003
   2        2S         -0.00008  -0.00017   0.14348  -0.00018   0.00017
   3        2PX         0.00009   0.00022  -0.02384   0.00009  -0.00016
   4        2PY         0.00900   0.00156   0.00016   0.02772  -0.11707
   5        2PZ        -0.00156   0.00898  -0.00010  -0.11700  -0.02770
   6        3S          0.00009   0.00018  -0.12363   0.00008  -0.00011
   7        3PX        -0.00019  -0.00044   0.01238  -0.00011   0.00023
   8        3PY        -0.02158  -0.00376  -0.00028  -0.05105   0.21569
   9        3PZ         0.00375  -0.02156   0.00019   0.21558   0.05105
  10        4S          0.00023   0.00047  -0.89479   0.00150  -0.00133
  11        4PX        -0.00017  -0.00059   0.36550  -0.00148   0.00209
  12        4PY         0.02371   0.00421  -0.00126  -0.27142   1.14579
  13        4PZ        -0.00409   0.02377   0.00092   1.14499   0.27099
  14 2   H  1S         -0.00666   0.02225   0.01692   0.13670   0.01583
  15        2S         -0.01764   0.05916   0.16583   1.09681   0.12740
  16 3   H  1S          0.02265  -0.00548   0.01651  -0.08212   0.11049
  17        2S          0.06007  -0.01440   0.16335  -0.65930   0.88726
  18 4   H  1S         -0.01605  -0.01701   0.01682  -0.05462  -0.12633
  19        2S         -0.04256  -0.04508   0.16518  -0.43839  -1.01394
  20 5   Al 1S         -0.00000  -0.00002   0.00412   0.00002  -0.00002
  21        2S          0.00002   0.00009  -0.03141  -0.00005  -0.00002
  22        2PX         0.00007  -0.00000  -0.12109   0.00003   0.00007
  23        2PY        -0.14639  -0.02549  -0.00009   0.00173  -0.00731
  24        2PZ         0.02550  -0.14637  -0.00006  -0.00735  -0.00172
  25        3S         -0.00001  -0.00011  -0.02762   0.00052  -0.00080
  26        3PX        -0.00013  -0.00000   0.18049   0.00013  -0.00035
  27        3PY         0.27098   0.04718   0.00014  -0.00500   0.02102
  28        3PZ        -0.04720   0.27094   0.00010   0.02112   0.00492
  29        4S         -0.00007  -0.00018   0.22427  -0.00058   0.00190
  30        4PX        -0.00007  -0.00004   1.18042  -0.00201   0.00140
  31        4PY         0.10135   0.01763   0.00045  -0.07942   0.33814
  32        4PZ        -0.01767   0.10133   0.00074   0.33933   0.08037
  33 6   H  1S         -0.15706  -0.16635   0.01839   0.02124   0.04912
  34        2S         -0.29891  -0.31667   0.07307   0.13368   0.30714
  35 7   H  1S         -0.06551   0.21904   0.01830  -0.05321  -0.00609
  36        2S         -0.12466   0.41694   0.07268  -0.33354  -0.03858
  37 8   H  1S          0.22247  -0.05294   0.01843   0.03176  -0.04286
  38        2S          0.42341  -0.10077   0.07345   0.19898  -0.26889
                          21        22        23        24        25
                           V         V         V         V         V
     Eigenvalues --     0.20824   0.20826   0.22130   0.29095   0.32525
   1 1   P  1S          0.00017  -0.00005   0.04033  -0.00169   0.00269
   2        2S         -0.00103   0.00034  -0.23844  -0.00897  -0.01917
   3        2PX        -0.00039   0.00016  -0.08847  -0.09318  -0.03054
   4        2PY         0.06746  -0.02600  -0.00028  -0.00005   0.00012
   5        2PZ         0.02607   0.06760  -0.00006   0.00012  -0.00000
   6        3S          0.00073  -0.00016   0.27563  -0.15767  -0.00615
   7        3PX         0.00096  -0.00033   0.21172   0.18318   0.01953
   8        3PY        -0.12741   0.04914   0.00056   0.00010  -0.00027
   9        3PZ        -0.04924  -0.12771   0.00014  -0.00030  -0.00002
  10        4S          0.00865  -0.00318   1.64000   0.78386   0.22277
  11        4PX         0.00278  -0.00145   0.78397   0.87267   0.91222
  12        4PY        -0.71780   0.27634   0.00225   0.00078  -0.00095
  13        4PZ        -0.27755  -0.71881   0.00062  -0.00066   0.00026
  14 2   H  1S         -0.00468  -0.01708  -0.04512  -0.01989  -0.05144
  15        2S         -0.14429  -0.54060  -0.98857  -0.56583  -0.45735
  16 3   H  1S         -0.01267   0.01239  -0.04501  -0.01982  -0.05166
  17        2S         -0.40375   0.39309  -0.98584  -0.56294  -0.45754
  18 4   H  1S          0.01683   0.00489  -0.04522  -0.01983  -0.05139
  19        2S          0.53441   0.15338  -0.99069  -0.56527  -0.45705
  20 5   Al 1S          0.00001  -0.00004  -0.00547   0.05057  -0.04574
  21        2S          0.00016   0.00010   0.07341  -0.22634   0.05120
  22        2PX        -0.00021   0.00015  -0.02051  -0.10801  -0.05649
  23        2PY        -0.00689   0.00263   0.00005  -0.00009  -0.00005
  24        2PZ        -0.00270  -0.00692  -0.00003   0.00002  -0.00002
  25        3S          0.00163  -0.00099   0.24055   0.74618  -1.65155
  26        3PX         0.00092  -0.00055   0.09796   0.39533   0.19692
  27        3PY        -0.03824   0.01479   0.00009   0.00044   0.00018
  28        3PZ        -0.01462  -0.03820   0.00008  -0.00011   0.00007
  29        4S         -0.00427   0.00093  -1.08824   1.02985   2.48237
  30        4PX        -0.00167  -0.00025   0.13959  -0.04218   0.31502
  31        4PY         1.49477  -0.57595  -0.00665  -0.00235  -0.00065
  32        4PZ         0.57541   1.49424  -0.00014   0.00083  -0.00004
  33 6   H  1S          0.05235   0.01468   0.04971  -0.08687  -0.02182
  34        2S          0.91961   0.25751   0.43346  -0.69024  -0.29560
  35 7   H  1S         -0.01328  -0.05259   0.04986  -0.08686  -0.02181
  36        2S         -0.23420  -0.92422   0.43635  -0.68997  -0.29523
  37 8   H  1S         -0.03879   0.03795   0.05014  -0.08679  -0.02177
  38        2S         -0.68156   0.66625   0.44059  -0.68832  -0.29483
                          26        27        28        29        30
                           V         V         V         V         V
     Eigenvalues --     0.40827   0.41373   0.41377   0.58136   0.58139
   1 1   P  1S          0.00956   0.00001   0.00002  -0.00001   0.00002
   2        2S         -0.04398  -0.00005  -0.00007   0.00004  -0.00007
   3        2PX        -0.00292  -0.00002  -0.00000   0.00019  -0.00015
   4        2PY         0.00023   0.00211   0.00835   0.28078  -0.18554
   5        2PZ        -0.00000   0.00832  -0.00224   0.18552   0.28078
   6        3S          0.16930   0.00016   0.00037  -0.00034   0.00066
   7        3PX         0.00844   0.00007   0.00007  -0.00075   0.00064
   8        3PY        -0.00065  -0.00436  -0.01758  -1.06599   0.70439
   9        3PZ        -0.00004  -0.01747   0.00478  -0.70434  -1.06598
  10        4S         -0.31526  -0.00024  -0.00022   0.00060  -0.00108
  11        4PX         0.42690   0.00023  -0.00059   0.00097  -0.00123
  12        4PY        -0.00109  -0.00976  -0.03747   1.15479  -0.76307
  13        4PZ         0.00039  -0.03740   0.00976   0.76312   1.15492
  14 2   H  1S         -0.05125  -0.01439   0.00559   0.07451   0.14771
  15        2S         -0.22615  -0.05961   0.02350   0.02138   0.04288
  16 3   H  1S         -0.05142   0.00227  -0.01511   0.09065  -0.13829
  17        2S         -0.22766   0.00954  -0.06315   0.02596  -0.03951
  18 4   H  1S         -0.05128   0.01197   0.00963  -0.16515  -0.00938
  19        2S         -0.22581   0.04952   0.03997  -0.04767  -0.00243
  20 5   Al 1S          0.00843   0.00001  -0.00001  -0.00000  -0.00001
  21        2S         -0.07553  -0.00008   0.00007   0.00004   0.00002
  22        2PX         0.30475   0.00039   0.00008  -0.00011   0.00007
  23        2PY         0.00016  -0.08121  -0.31034   0.00349  -0.00238
  24        2PZ         0.00038  -0.31034   0.08121   0.00227   0.00356
  25        3S         -0.10548   0.00004   0.00004   0.00023  -0.00022
  26        3PX        -1.33566  -0.00176  -0.00040   0.00061  -0.00036
  27        3PY        -0.00069   0.36558   1.39706  -0.00507   0.00370
  28        3PZ        -0.00167   1.39697  -0.36559  -0.00317  -0.00535
  29        4S          1.03461   0.00095  -0.00088  -0.00057  -0.00016
  30        4PX         1.35314   0.00116  -0.00028  -0.00017   0.00010
  31        4PY         0.00056  -0.12917  -0.49302  -0.33317   0.22025
  32        4PZ         0.00084  -0.49362   0.12905  -0.22015  -0.33332
  33 6   H  1S         -0.03184  -0.00156  -0.00118   0.00771   0.00042
  34        2S         -0.35521   0.50076   0.40045  -0.17098  -0.00971
  35 7   H  1S         -0.03185   0.00177  -0.00067  -0.00332  -0.00674
  36        2S         -0.35439  -0.59724   0.23468   0.07718   0.15373
  37 8   H  1S         -0.03180  -0.00033   0.00195  -0.00406   0.00628
  38        2S         -0.35508   0.09519  -0.63411   0.09451  -0.14377
                          31        32        33        34        35
                           V         V         V         V         V
     Eigenvalues --     0.59685   0.82852   1.17620   1.23090   1.23093
   1 1   P  1S         -0.02007  -0.05457  -0.02537   0.00000   0.00001
   2        2S          0.02399   0.12600   0.09266   0.00000  -0.00002
   3        2PX         0.28588  -0.18162   0.12339   0.00023  -0.00002
   4        2PY        -0.00029   0.00002  -0.00012   0.13072  -0.06807
   5        2PZ         0.00006   0.00001   0.00004  -0.06806  -0.13076
   6        3S         -0.98626  -2.18991  -0.65622   0.00003   0.00024
   7        3PX        -1.13150   0.73807  -0.39320  -0.00071   0.00006
   8        3PY         0.00113   0.00000   0.00033  -0.38929   0.20271
   9        3PZ        -0.00024  -0.00011  -0.00010   0.20270   0.38944
  10        4S          2.07501   3.83601   1.94155  -0.00004  -0.00046
  11        4PX         1.75645  -0.73106   0.96339   0.00147  -0.00021
  12        4PY        -0.00188  -0.00154  -0.00093   0.75636  -0.39386
  13        4PZ         0.00041   0.00073   0.00029  -0.39383  -0.75672
  14 2   H  1S         -0.15364  -0.06001   0.73546   0.60133   0.88480
  15        2S         -0.61636  -0.60408  -1.25042  -0.79583  -1.17091
  16 3   H  1S         -0.15345  -0.06023   0.73508  -1.06701   0.07827
  17        2S         -0.61610  -0.60518  -1.24979   1.41193  -0.10346
  18 4   H  1S         -0.15363  -0.06017   0.73540   0.46555  -0.96328
  19        2S         -0.61626  -0.60398  -1.25037  -0.61609   1.27492
  20 5   Al 1S          0.00290  -0.01080  -0.00085  -0.00000   0.00001
  21        2S          0.01220   0.10748  -0.00571   0.00005  -0.00004
  22        2PX         0.00562   0.04261   0.02985  -0.00005  -0.00001
  23        2PY        -0.00006  -0.00003   0.00003  -0.00598   0.00309
  24        2PZ         0.00000   0.00003   0.00000   0.00306   0.00594
  25        3S          0.24448   0.16638  -0.08116   0.00041  -0.00002
  26        3PX         0.11902  -0.21469  -0.11419   0.00040  -0.00002
  27        3PY         0.00032   0.00025   0.00000  -0.02351   0.01226
  28        3PZ        -0.00001  -0.00012  -0.00003   0.01235   0.02354
  29        4S         -0.08804  -1.56268   0.12612   0.00041  -0.00015
  30        4PX        -0.00417  -0.69066   0.20445  -0.00022  -0.00002
  31        4PY         0.00012   0.00022  -0.00012  -0.13761   0.07168
  32        4PZ         0.00014  -0.00008   0.00010   0.07153   0.13789
  33 6   H  1S          0.03520   0.03451  -0.09853   0.08667  -0.17811
  34        2S          0.01808   0.33751   0.08138  -0.10331   0.21269
  35 7   H  1S          0.03524   0.03476  -0.09829   0.11146   0.16293
  36        2S          0.01769   0.33716   0.08117  -0.13317  -0.19478
  37 8   H  1S          0.03533   0.03491  -0.09786  -0.19644   0.01428
  38        2S          0.01757   0.33671   0.08098   0.23462  -0.01712
                          36        37        38
                           V         V         V
     Eigenvalues --     1.41344   1.41350   1.44948
   1 1   P  1S         -0.00001  -0.00002   0.00159
   2        2S          0.00002   0.00001   0.01635
   3        2PX        -0.00001  -0.00003   0.01218
   4        2PY        -0.00904  -0.02364  -0.00021
   5        2PZ        -0.02362   0.00897  -0.00001
   6        3S         -0.00042  -0.00126   0.24955
   7        3PX         0.00008   0.00015  -0.05724
   8        3PY         0.02548   0.06645   0.00071
   9        3PZ         0.06642  -0.02517   0.00010
  10        4S          0.00076   0.00294  -0.56535
  11        4PX         0.00000  -0.00037   0.42367
  12        4PY        -0.03524  -0.09130  -0.00146
  13        4PZ        -0.09115   0.03452  -0.00033
  14 2   H  1S          0.18076  -0.09420   0.11586
  15        2S         -0.25049   0.12986  -0.14837
  16 3   H  1S         -0.00850   0.20395   0.11731
  17        2S          0.01146  -0.28307  -0.15026
  18 4   H  1S         -0.17205  -0.10949   0.11519
  19        2S          0.23822   0.15118  -0.14698
  20 5   Al 1S         -0.00000   0.00002  -0.01257
  21        2S          0.00000  -0.00006   0.03136
  22        2PX         0.00007   0.00010  -0.00843
  23        2PY        -0.03151  -0.08299  -0.00014
  24        2PZ        -0.08298   0.03152   0.00006
  25        3S         -0.00002   0.00029  -0.25072
  26        3PX        -0.00013  -0.00018  -0.05079
  27        3PY         0.03829   0.10080   0.00008
  28        3PZ         0.10083  -0.03831  -0.00005
  29        4S         -0.00021  -0.00319   1.91999
  30        4PX         0.00041   0.00001   0.29111
  31        4PY        -0.22963  -0.60540  -0.00118
  32        4PZ        -0.60504   0.22990   0.00063
  33 6   H  1S          0.93891   0.59559   0.80844
  34        2S         -1.10055  -0.69785  -1.25426
  35 7   H  1S         -0.98658   0.51321   0.80835
  36        2S          1.15658  -0.60125  -1.25417
  37 8   H  1S          0.04758  -1.11313   0.80565
  38        2S         -0.05574   1.30558  -1.25067
     Density Matrix:
                           1         2         3         4         5
   1 1   P  1S          2.13242
   2        2S         -0.54387   2.26809
   3        2PX         0.00445  -0.02711   1.98821
   4        2PY        -0.00001   0.00004  -0.00003   1.96573
   5        2PZ         0.00000  -0.00001   0.00001  -0.00000   1.96573
   6        3S         -0.05788  -0.02925   0.01995  -0.00005   0.00002
   7        3PX        -0.00696   0.04683  -0.01308   0.00006  -0.00002
   8        3PY         0.00002  -0.00008   0.00006   0.02649   0.00000
   9        3PZ        -0.00001   0.00003  -0.00003   0.00000   0.02649
  10        4S          0.16321  -0.63710   0.11702  -0.00010   0.00003
  11        4PX        -0.01977   0.11204  -0.28943   0.00019  -0.00007
  12        4PY        -0.00001  -0.00003   0.00013  -0.13634   0.00001
  13        4PZ         0.00001  -0.00001  -0.00003   0.00000  -0.13635
  14 2   H  1S          0.01648  -0.07410  -0.05304  -0.01262   0.10806
  15        2S         -0.01176   0.02345  -0.03343  -0.01295   0.11059
  16 3   H  1S          0.01648  -0.07408  -0.05280   0.10003  -0.04307
  17        2S         -0.01179   0.02357  -0.03330   0.10234  -0.04407
  18 4   H  1S          0.01648  -0.07410  -0.05306  -0.08718  -0.06507
  19        2S         -0.01176   0.02348  -0.03347  -0.08925  -0.06657
  20 5   Al 1S         -0.00000  -0.00049   0.00164  -0.00000   0.00000
  21        2S          0.00107  -0.00253  -0.00725   0.00001  -0.00000
  22        2PX        -0.00429   0.02575  -0.02590   0.00003  -0.00001
  23        2PY        -0.00000   0.00002  -0.00001   0.00062   0.00000
  24        2PZ        -0.00000   0.00001  -0.00001   0.00000   0.00062
  25        3S          0.00558  -0.02000   0.01551  -0.00002   0.00001
  26        3PX         0.00640  -0.03955   0.03815  -0.00006   0.00002
  27        3PY         0.00001  -0.00004   0.00002  -0.00091  -0.00000
  28        3PZ         0.00000  -0.00001   0.00001  -0.00000  -0.00091
  29        4S         -0.03166   0.10980  -0.05752   0.00003   0.00001
  30        4PX        -0.01392   0.04490  -0.01875  -0.00000   0.00000
  31        4PY         0.00001  -0.00003   0.00003   0.01305   0.00000
  32        4PZ         0.00000  -0.00000   0.00000  -0.00000   0.01306
  33 6   H  1S         -0.00262   0.01316  -0.00778  -0.00054  -0.00042
  34        2S          0.00202   0.00473  -0.01392   0.00172   0.00127
  35 7   H  1S         -0.00262   0.01314  -0.00777  -0.00008   0.00069
  36        2S          0.00203   0.00468  -0.01388   0.00027  -0.00215
  37 8   H  1S         -0.00262   0.01315  -0.00778   0.00065  -0.00028
  38        2S          0.00203   0.00469  -0.01391  -0.00195   0.00083
                           6         7         8         9        10
   6        3S          0.36637
   7        3PX        -0.04431   0.38764
   8        3PY         0.00008  -0.00011   0.30825
   9        3PZ        -0.00003   0.00004  -0.00000   0.30824
  10        4S          0.45479  -0.22704   0.00027  -0.00011   0.80374
  11        4PX        -0.11527   0.40630  -0.00038   0.00015  -0.35140
  12        4PY         0.00011  -0.00030   0.13496  -0.00002   0.00032
  13        4PZ        -0.00002   0.00007  -0.00001   0.13496  -0.00007
  14 2   H  1S          0.07364   0.09093   0.02223  -0.19036   0.06502
  15        2S          0.01895   0.09691   0.03085  -0.26371  -0.02621
  16 3   H  1S          0.07361   0.09053  -0.17622   0.07588   0.06505
  17        2S          0.01882   0.09649  -0.24404   0.10509  -0.02635
  18 4   H  1S          0.07364   0.09097   0.15359   0.11463   0.06501
  19        2S          0.01892   0.09700   0.21280   0.15876  -0.02628
  20 5   Al 1S         -0.00428  -0.00183   0.00001  -0.00000   0.00661
  21        2S          0.00523   0.01390  -0.00003   0.00001   0.00726
  22        2PX        -0.01482   0.04917  -0.00006   0.00002  -0.08201
  23        2PY        -0.00004   0.00002   0.00022   0.00000   0.00002
  24        2PZ        -0.00001   0.00001  -0.00000   0.00021  -0.00003
  25        3S          0.01327  -0.03064   0.00003  -0.00001   0.00161
  26        3PX         0.04543  -0.08259   0.00009  -0.00003   0.09973
  27        3PY         0.00004  -0.00004   0.00058  -0.00001   0.00010
  28        3PZ         0.00002  -0.00002  -0.00000   0.00058   0.00003
  29        4S         -0.05655   0.05123  -0.00001   0.00002  -0.14159
  30        4PX        -0.02007   0.00406   0.00001  -0.00000  -0.03741
  31        4PY         0.00003  -0.00004  -0.00280  -0.00001   0.00007
  32        4PZ         0.00001  -0.00002  -0.00000  -0.00280   0.00002
  33 6   H  1S         -0.01156   0.01480   0.00236   0.00178  -0.03636
  34        2S         -0.01797   0.03664   0.00590   0.00445  -0.05717
  35 7   H  1S         -0.01154   0.01479   0.00034  -0.00293  -0.03632
  36        2S         -0.01791   0.03657   0.00083  -0.00735  -0.05705
  37 8   H  1S         -0.01154   0.01480  -0.00274   0.00117  -0.03632
  38        2S         -0.01792   0.03661  -0.00687   0.00295  -0.05707
                          11        12        13        14        15
  11        4PX         0.48344
  12        4PY        -0.00046   0.07263
  13        4PZ         0.00013  -0.00000   0.07264
  14 2   H  1S          0.08501   0.01072  -0.09210   0.17265
  15        2S          0.10052   0.01431  -0.12258   0.20449   0.26883
  16 3   H  1S          0.08482  -0.08532   0.03674  -0.01845  -0.05726
  17        2S          0.10045  -0.11352   0.04889  -0.05723  -0.09348
  18 4   H  1S          0.08504   0.07425   0.05547  -0.01846  -0.05726
  19        2S          0.10063   0.09885   0.07380  -0.05726  -0.09351
  20 5   Al 1S         -0.00415  -0.00002   0.00001  -0.00016  -0.00271
  21        2S         -0.00171   0.00006  -0.00002   0.00174   0.00778
  22        2PX         0.06891   0.00002  -0.00000   0.00515   0.02110
  23        2PY         0.00002  -0.01372  -0.00001   0.00012   0.00208
  24        2PZ         0.00003  -0.00002  -0.01372  -0.00101  -0.01790
  25        3S          0.00046  -0.00003  -0.00000  -0.00239  -0.00655
  26        3PX        -0.10151   0.00010  -0.00004  -0.01158  -0.01754
  27        3PY        -0.00004   0.01906   0.00003  -0.00054  -0.00259
  28        3PZ        -0.00005   0.00004   0.01908   0.00465   0.02210
  29        4S          0.09964  -0.00009   0.00002  -0.00004   0.01015
  30        4PX         0.01201  -0.00001  -0.00000  -0.00450  -0.00034
  31        4PY        -0.00005   0.00496   0.00001  -0.00051  -0.00141
  32        4PZ        -0.00003   0.00001   0.00497   0.00436   0.01206
  33 6   H  1S          0.03344  -0.01166  -0.00868  -0.00100  -0.00788
  34        2S          0.06459  -0.02174  -0.01619   0.00108  -0.01330
  35 7   H  1S          0.03340  -0.00171   0.01439   0.00802   0.02514
  36        2S          0.06446  -0.00319   0.02683   0.01961   0.05146
  37 8   H  1S          0.03346   0.01323  -0.00568  -0.00098  -0.00781
  38        2S          0.06460   0.02466  -0.01059   0.00112  -0.01318
                          16        17        18        19        20
  16 3   H  1S          0.17265
  17        2S          0.20450   0.26888
  18 4   H  1S         -0.01845  -0.05723   0.17265
  19        2S         -0.05725  -0.09347   0.20450   0.26887
  20 5   Al 1S         -0.00016  -0.00274  -0.00016  -0.00270   2.12078
  21        2S          0.00175   0.00789   0.00174   0.00776  -0.51148
  22        2PX         0.00512   0.02119   0.00515   0.02108   0.00171
  23        2PY        -0.00093  -0.01657   0.00082   0.01445   0.00000
  24        2PZ         0.00040   0.00713   0.00061   0.01080   0.00000
  25        3S         -0.00240  -0.00660  -0.00238  -0.00652  -0.03864
  26        3PX        -0.01156  -0.01755  -0.01158  -0.01754  -0.00360
  27        3PY         0.00430   0.02041  -0.00377  -0.01787  -0.00000
  28        3PZ        -0.00186  -0.00878  -0.00281  -0.01334  -0.00000
  29        4S         -0.00012   0.01006  -0.00002   0.01020   0.04341
  30        4PX        -0.00452  -0.00036  -0.00449  -0.00032  -0.00096
  31        4PY         0.00403   0.01114  -0.00353  -0.00976   0.00000
  32        4PZ        -0.00174  -0.00480  -0.00263  -0.00728  -0.00000
  33 6   H  1S         -0.00100  -0.00786   0.00803   0.02518   0.01660
  34        2S          0.00108  -0.01323   0.01963   0.05154   0.02221
  35 7   H  1S         -0.00101  -0.00787  -0.00098  -0.00784   0.01660
  36        2S          0.00106  -0.01326   0.00110  -0.01324   0.02221
  37 8   H  1S          0.00801   0.02510  -0.00099  -0.00785   0.01660
  38        2S          0.01961   0.05140   0.00109  -0.01324   0.02221
                          21        22        23        24        25
  21        2S          2.16993
  22        2PX        -0.00856   1.92295
  23        2PY        -0.00000  -0.00003   1.95910
  24        2PZ         0.00000  -0.00001  -0.00000   1.95909
  25        3S          0.01362   0.01074   0.00001   0.00000   0.24413
  26        3PX         0.01650   0.15840   0.00005   0.00003  -0.01512
  27        3PY         0.00001   0.00005   0.08929   0.00001  -0.00001
  28        3PZ         0.00000   0.00002   0.00001   0.08930  -0.00000
  29        4S         -0.18329   0.02531  -0.00002   0.00000   0.15682
  30        4PX        -0.00493  -0.05569   0.00000  -0.00000   0.00382
  31        4PY        -0.00000  -0.00000  -0.07971   0.00000  -0.00000
  32        4PZ         0.00001   0.00001   0.00000  -0.07972  -0.00000
  33 6   H  1S         -0.07442   0.00909   0.06227   0.04650   0.09158
  34        2S         -0.10154   0.01224   0.10976   0.08197   0.13480
  35 7   H  1S         -0.07443   0.00918   0.00916  -0.07717   0.09159
  36        2S         -0.10155   0.01237   0.01614  -0.13601   0.13480
  37 8   H  1S         -0.07444   0.00920  -0.07140   0.03067   0.09161
  38        2S         -0.10157   0.01243  -0.12583   0.05405   0.13485
                          26        27        28        29        30
  26        3PX         0.03991
  27        3PY        -0.00010   0.16718
  28        3PZ        -0.00005  -0.00001   0.16714
  29        4S         -0.03509  -0.00003   0.00000   0.14803
  30        4PX        -0.00934  -0.00004  -0.00001   0.00944   0.00395
  31        4PY        -0.00003   0.05222  -0.00001  -0.00002  -0.00002
  32        4PZ        -0.00002  -0.00001   0.05221  -0.00000  -0.00000
  33 6   H  1S         -0.01389  -0.10036  -0.07494   0.07440   0.00311
  34        2S         -0.02362  -0.19175  -0.14323   0.11072   0.00450
  35 7   H  1S         -0.01402  -0.01476   0.12437   0.07441   0.00308
  36        2S         -0.02385  -0.02818   0.23763   0.11073   0.00444
  37 8   H  1S         -0.01406   0.11508  -0.04943   0.07441   0.00306
  38        2S         -0.02393   0.21985  -0.09445   0.11074   0.00439
                          31        32        33        34        35
  31        4PY         0.02250
  32        4PZ        -0.00001   0.02249
  33 6   H  1S         -0.03791  -0.02831   0.14476
  34        2S         -0.07190  -0.05371   0.25883   0.46858
  35 7   H  1S         -0.00559   0.04698  -0.01247  -0.04035   0.14476
  36        2S         -0.01059   0.08912  -0.04034  -0.10080   0.25881
  37 8   H  1S          0.04347  -0.01868  -0.01247  -0.04030  -0.01248
  38        2S          0.08245  -0.03544  -0.04030  -0.10063  -0.04033
                          36        37        38
  36        2S          0.46851
  37 8   H  1S         -0.04032   0.14477
  38        2S         -0.10071   0.25881   0.46846
    Full Mulliken population analysis:
                           1         2         3         4         5
   1 1   P  1S          2.13242
   2        2S         -0.13662   2.26809
   3        2PX         0.00000   0.00000   1.98821
   4        2PY         0.00000   0.00000  -0.00000   1.96573
   5        2PZ         0.00000   0.00000   0.00000  -0.00000   1.96573
   6        3S         -0.00196  -0.01034   0.00000   0.00000   0.00000
   7        3PX         0.00000   0.00000  -0.00396   0.00000  -0.00000
   8        3PY         0.00000   0.00000   0.00000   0.00801   0.00000
   9        3PZ         0.00000   0.00000  -0.00000   0.00000   0.00801
  10        4S          0.00536  -0.16247   0.00000   0.00000   0.00000
  11        4PX         0.00000   0.00000  -0.02141   0.00000  -0.00000
  12        4PY         0.00000   0.00000   0.00000  -0.01008   0.00000
  13        4PZ         0.00000   0.00000  -0.00000   0.00000  -0.01009
  14 2   H  1S          0.00001  -0.00057  -0.00026  -0.00001  -0.00101
  15        2S         -0.00014   0.00231  -0.00061  -0.00005  -0.00378
  16 3   H  1S          0.00001  -0.00057  -0.00026  -0.00087  -0.00016
  17        2S         -0.00014   0.00233  -0.00060  -0.00324  -0.00060
  18 4   H  1S          0.00001  -0.00057  -0.00026  -0.00066  -0.00037
  19        2S         -0.00014   0.00232  -0.00061  -0.00246  -0.00137
  20 5   Al 1S          0.00000   0.00000   0.00000   0.00000   0.00000
  21        2S          0.00000  -0.00000   0.00000  -0.00000   0.00000
  22        2PX        -0.00000   0.00000   0.00000  -0.00000   0.00000
  23        2PY        -0.00000   0.00000   0.00000   0.00000  -0.00000
  24        2PZ        -0.00000   0.00000   0.00000  -0.00000   0.00000
  25        3S          0.00000  -0.00006  -0.00004   0.00000  -0.00000
  26        3PX         0.00001  -0.00041  -0.00029   0.00000  -0.00000
  27        3PY         0.00000  -0.00000  -0.00000  -0.00000   0.00000
  28        3PZ         0.00000  -0.00000  -0.00000   0.00000  -0.00000
  29        4S         -0.00012   0.00341   0.00049  -0.00000  -0.00000
  30        4PX        -0.00014   0.00354   0.00028   0.00000  -0.00000
  31        4PY         0.00000  -0.00000  -0.00000   0.00009  -0.00000
  32        4PZ         0.00000  -0.00000  -0.00000   0.00000   0.00009
  33 6   H  1S         -0.00000   0.00000   0.00000   0.00000   0.00000
  34        2S          0.00000   0.00000   0.00000  -0.00000  -0.00000
  35 7   H  1S         -0.00000   0.00000   0.00000   0.00000   0.00000
  36        2S          0.00000   0.00000   0.00000  -0.00000  -0.00000
  37 8   H  1S         -0.00000   0.00000   0.00000   0.00000   0.00000
  38        2S          0.00000   0.00000   0.00000  -0.00000  -0.00000
                           6         7         8         9        10
   6        3S          0.36637
   7        3PX         0.00000   0.38764
   8        3PY         0.00000  -0.00000   0.30825
   9        3PZ         0.00000   0.00000  -0.00000   0.30824
  10        4S          0.37929   0.00000   0.00000   0.00000   0.80374
  11        4PX         0.00000   0.26272  -0.00000   0.00000   0.00000
  12        4PY         0.00000  -0.00000   0.08727  -0.00000   0.00000
  13        4PZ         0.00000   0.00000  -0.00000   0.08727   0.00000
  14 2   H  1S          0.01117   0.01181   0.00063   0.04656   0.01587
  15        2S          0.00763   0.01712   0.00120   0.08772  -0.01511
  16 3   H  1S          0.01117   0.01171   0.03991   0.00740   0.01588
  17        2S          0.00758   0.01697   0.07516   0.01393  -0.01519
  18 4   H  1S          0.01117   0.01182   0.03031   0.01689   0.01587
  19        2S          0.00762   0.01714   0.05711   0.03180  -0.01515
  20 5   Al 1S         -0.00000   0.00000  -0.00000   0.00000   0.00001
  21        2S          0.00000  -0.00001   0.00000  -0.00000   0.00012
  22        2PX        -0.00000  -0.00005   0.00000  -0.00000  -0.00087
  23        2PY        -0.00000  -0.00000   0.00000  -0.00000   0.00000
  24        2PZ        -0.00000  -0.00000   0.00000   0.00000  -0.00000
  25        3S          0.00050   0.00201  -0.00000   0.00000   0.00023
  26        3PX         0.00424   0.01189  -0.00000   0.00000   0.02170
  27        3PY         0.00000   0.00000   0.00001   0.00000   0.00000
  28        3PZ         0.00000   0.00000   0.00000   0.00001   0.00000
  29        4S         -0.00848  -0.00596   0.00000  -0.00000  -0.04321
  30        4PX        -0.00663  -0.00069  -0.00000   0.00000  -0.01949
  31        4PY         0.00000   0.00000  -0.00025   0.00000   0.00000
  32        4PZ         0.00000   0.00000   0.00000  -0.00025   0.00000
  33 6   H  1S         -0.00000  -0.00000  -0.00000  -0.00000  -0.00028
  34        2S         -0.00014  -0.00050  -0.00004  -0.00002  -0.00310
  35 7   H  1S         -0.00000  -0.00000  -0.00000  -0.00000  -0.00028
  36        2S         -0.00014  -0.00050  -0.00000  -0.00005  -0.00309
  37 8   H  1S         -0.00000  -0.00000  -0.00000  -0.00000  -0.00028
  38        2S         -0.00014  -0.00050  -0.00005  -0.00001  -0.00309
                          11        12        13        14        15
  11        4PX         0.48344
  12        4PY        -0.00000   0.07263
  13        4PZ         0.00000  -0.00000   0.07264
  14 2   H  1S          0.01581   0.00044   0.03225   0.17265
  15        2S          0.03020   0.00094   0.06934   0.13208   0.26883
  16 3   H  1S          0.01571   0.02766   0.00513  -0.00002  -0.00299
  17        2S          0.03005   0.05945   0.01102  -0.00299  -0.02034
  18 4   H  1S          0.01582   0.02098   0.01170  -0.00002  -0.00299
  19        2S          0.03024   0.04511   0.02514  -0.00299  -0.02035
  20 5   Al 1S          0.00002   0.00000  -0.00000  -0.00000  -0.00000
  21        2S          0.00009  -0.00000   0.00000   0.00000   0.00000
  22        2PX        -0.00206  -0.00000   0.00000   0.00000   0.00000
  23        2PY        -0.00000  -0.00008   0.00000   0.00000   0.00000
  24        2PZ        -0.00000   0.00000  -0.00008   0.00000   0.00000
  25        3S         -0.00014   0.00000   0.00000  -0.00000  -0.00009
  26        3PX         0.03737  -0.00000   0.00000  -0.00002  -0.00055
  27        3PY         0.00000   0.00230  -0.00000  -0.00000  -0.00000
  28        3PZ         0.00000  -0.00000   0.00231  -0.00000  -0.00025
  29        4S         -0.03745   0.00000  -0.00000  -0.00000   0.00093
  30        4PX        -0.00423   0.00000   0.00000  -0.00030  -0.00007
  31        4PY         0.00000   0.00144  -0.00000  -0.00000  -0.00001
  32        4PZ         0.00000  -0.00000   0.00144  -0.00011  -0.00097
  33 6   H  1S         -0.00087   0.00013   0.00007  -0.00000  -0.00000
  34        2S         -0.00807   0.00120   0.00067   0.00000  -0.00011
  35 7   H  1S         -0.00087   0.00000   0.00020   0.00000   0.00000
  36        2S         -0.00804   0.00003   0.00183   0.00000   0.00006
  37 8   H  1S         -0.00087   0.00017   0.00003  -0.00000  -0.00000
  38        2S         -0.00806   0.00155   0.00029   0.00000  -0.00010
                          16        17        18        19        20
  16 3   H  1S          0.17265
  17        2S          0.13209   0.26888
  18 4   H  1S         -0.00002  -0.00299   0.17265
  19        2S         -0.00299  -0.02034   0.13209   0.26887
  20 5   Al 1S         -0.00000  -0.00000  -0.00000  -0.00000   2.12078
  21        2S          0.00000   0.00000   0.00000   0.00000  -0.12328
  22        2PX         0.00000   0.00000   0.00000   0.00000   0.00000
  23        2PY         0.00000   0.00000   0.00000   0.00000   0.00000
  24        2PZ         0.00000   0.00000   0.00000   0.00000   0.00000
  25        3S         -0.00000  -0.00009  -0.00000  -0.00009  -0.00047
  26        3PX        -0.00002  -0.00055  -0.00002  -0.00055   0.00000
  27        3PY        -0.00000  -0.00022  -0.00000  -0.00016   0.00000
  28        3PZ        -0.00000  -0.00004  -0.00000  -0.00009   0.00000
  29        4S         -0.00000   0.00093  -0.00000   0.00094   0.00110
  30        4PX        -0.00031  -0.00008  -0.00030  -0.00007   0.00000
  31        4PY        -0.00009  -0.00083  -0.00007  -0.00063   0.00000
  32        4PZ        -0.00002  -0.00015  -0.00004  -0.00035   0.00000
  33 6   H  1S         -0.00000  -0.00000   0.00000   0.00000   0.00000
  34        2S          0.00000  -0.00011   0.00000   0.00006   0.00023
  35 7   H  1S         -0.00000  -0.00000  -0.00000  -0.00000   0.00000
  36        2S          0.00000  -0.00011   0.00000  -0.00010   0.00023
  37 8   H  1S          0.00000   0.00000  -0.00000  -0.00000   0.00000
  38        2S          0.00000   0.00006   0.00000  -0.00010   0.00023
                          21        22        23        24        25
  21        2S          2.16993
  22        2PX         0.00000   1.92295
  23        2PY         0.00000  -0.00000   1.95910
  24        2PZ         0.00000  -0.00000  -0.00000   1.95909
  25        3S          0.00348   0.00000   0.00000   0.00000   0.24413
  26        3PX         0.00000   0.03828   0.00000   0.00000   0.00000
  27        3PY         0.00000   0.00000   0.02158   0.00000   0.00000
  28        3PZ         0.00000   0.00000   0.00000   0.02158   0.00000
  29        4S         -0.04000   0.00000   0.00000   0.00000   0.12949
  30        4PX         0.00000  -0.00327   0.00000  -0.00000   0.00000
  31        4PY         0.00000  -0.00000  -0.00469   0.00000   0.00000
  32        4PZ         0.00000   0.00000   0.00000  -0.00469   0.00000
  33 6   H  1S         -0.00033  -0.00001  -0.00039  -0.00021   0.01567
  34        2S         -0.00957  -0.00007  -0.00459  -0.00256   0.05886
  35 7   H  1S         -0.00033  -0.00001  -0.00001  -0.00059   0.01567
  36        2S         -0.00957  -0.00008  -0.00010  -0.00704   0.05886
  37 8   H  1S         -0.00033  -0.00001  -0.00051  -0.00009   0.01568
  38        2S         -0.00957  -0.00008  -0.00603  -0.00111   0.05889
                          26        27        28        29        30
  26        3PX         0.03991
  27        3PY        -0.00000   0.16718
  28        3PZ        -0.00000  -0.00000   0.16714
  29        4S          0.00000   0.00000   0.00000   0.14803
  30        4PX        -0.00621  -0.00000  -0.00000   0.00000   0.00395
  31        4PY        -0.00000   0.03469  -0.00000   0.00000  -0.00000
  32        4PZ        -0.00000  -0.00000   0.03468   0.00000  -0.00000
  33 6   H  1S          0.00052   0.02575   0.01436   0.01509  -0.00010
  34        2S          0.00144   0.08031   0.04479   0.05856  -0.00031
  35 7   H  1S          0.00053   0.00056   0.03955   0.01509  -0.00010
  36        2S          0.00146   0.00174   0.12333   0.05856  -0.00031
  37 8   H  1S          0.00053   0.03386   0.00625   0.01510  -0.00010
  38        2S          0.00147   0.10558   0.01948   0.05857  -0.00031
                          31        32        33        34        35
  31        4PY         0.02250
  32        4PZ        -0.00000   0.02249
  33 6   H  1S          0.00876   0.00488   0.14476
  34        2S          0.03450   0.01924   0.16718   0.46858
  35 7   H  1S          0.00019   0.01345  -0.00000  -0.00042   0.14476
  36        2S          0.00075   0.05298  -0.00042  -0.00823   0.16717
  37 8   H  1S          0.01151   0.00212  -0.00000  -0.00042  -0.00000
  38        2S          0.04535   0.00837  -0.00042  -0.00821  -0.00042
                          36        37        38
  36        2S          0.46851
  37 8   H  1S         -0.00042   0.14477
  38        2S         -0.00822   0.16716   0.46846
     Gross orbital populations:
                           1
   1 1   P  1S          1.99855
   2        2S          1.97040
   3        2PX         1.96070
   4        2PY         1.95645
   5        2PZ         1.95645
   6        3S          0.77890
   7        3PX         0.73867
   8        3PY         0.60752
   9        3PZ         0.60751
  10        4S          0.97646
  11        4PX         0.82941
  12        4PY         0.31115
  13        4PZ         0.31116
  14 2   H  1S          0.43098
  15        2S          0.54985
  16 3   H  1S          0.43099
  17        2S          0.54984
  18 4   H  1S          0.43099
  19        2S          0.54987
  20 5   Al 1S          1.99886
  21        2S          1.98065
  22        2PX         1.95473
  23        2PY         1.96429
  24        2PZ         1.96429
  25        3S          0.60250
  26        3PX         0.15074
  27        3PY         0.47317
  28        3PZ         0.47308
  29        4S          0.37105
  30        4PX        -0.03527
  31        4PY         0.15318
  32        4PZ         0.15316
  33 6   H  1S          0.39414
  34        2S          0.88914
  35 7   H  1S          0.39414
  36        2S          0.88908
  37 8   H  1S          0.39415
  38        2S          0.88905
          Condensed to atoms (all electrons):
               1          2          3          4          5          6
     1  P   14.085165   0.329494   0.329439   0.329456  -0.037412  -0.010950
     2  H    0.329494   0.705637  -0.026344  -0.026348  -0.001447  -0.000107
     3  H    0.329439  -0.026344   0.705699  -0.026338  -0.001470  -0.000107
     4  H    0.329456  -0.026348  -0.026338   0.705692  -0.001439   0.000058
     5  Al  -0.037412  -0.001447  -0.001470  -0.001439  11.151739   0.364803
     6  H   -0.010950  -0.000107  -0.000107   0.000058   0.364803   0.947692
     7  H   -0.010907   0.000058  -0.000107  -0.000106   0.364804  -0.009068
     8  H   -0.010940  -0.000105   0.000058  -0.000106   0.364840  -0.009044
               7          8
     1  P   -0.010907  -0.010940
     2  H    0.000058  -0.000105
     3  H   -0.000107   0.000058
     4  H   -0.000106  -0.000106
     5  Al   0.364804   0.364840
     6  H   -0.009068  -0.009044
     7  H    0.947608  -0.009057
     8  H   -0.009057   0.947550
 Mulliken charges:
               1
     1  P   -0.003343
     2  H    0.019162
     3  H    0.019168
     4  H    0.019131
     5  Al   0.795580
     6  H   -0.283277
     7  H   -0.283226
     8  H   -0.283196
 Sum of Mulliken charges =   0.00000
 Mulliken charges with hydrogens summed into heavy atoms:
               1
     1  P    0.054118
     5  Al  -0.054118
 Electronic spatial extent (au):  <R**2>=            370.0024
 Charge=              0.0000 electrons
 Dipole moment (field-independent basis, Debye):
    X=              4.2380    Y=              0.0008    Z=             -0.0000  Tot=              4.2380
 Quadrupole moment (field-independent basis, Debye-Ang):
   XX=            -30.0366   YY=            -34.8151   ZZ=            -34.8126
   XY=              0.0036   XZ=              0.0020   YZ=              0.0001
 Traceless Quadrupole moment (field-independent basis, Debye-Ang):
   XX=              3.1848   YY=             -1.5936   ZZ=             -1.5911
   XY=              0.0036   XZ=              0.0020   YZ=              0.0001
 Octapole moment (field-independent basis, Debye-Ang**2):
  XXX=             10.2976  YYY=             -1.5025  ZZZ=             -4.0867  XYY=             13.1236
  XXY=             -0.0053  XXZ=             -0.0130  XZZ=             13.1207  YZZ=              1.5127
  YYZ=              4.0883  XYZ=             -0.0036
 Hexadecapole moment (field-independent basis, Debye-Ang**3):
 XXXX=           -414.7961 YYYY=           -101.4427 ZZZZ=           -101.4198 XXXY=              0.0565
 XXXZ=              0.0199 YYYX=              2.4291 YYYZ=             -0.0036 ZZZX=              6.5628
 ZZZY=              0.0017 XXYY=           -100.2476 XXZZ=           -100.2383 YYZZ=            -33.8119
 XXYZ=              0.0132 YYXZ=             -6.5583 ZZXY=             -2.4215
 N-N= 8.310618489478D+01 E-N=-1.556155509829D+03  KE= 5.825095173605D+02
 Orbital energies and kinetic energies (alpha):
                                 1                 2
   1         O               -79.436964        105.408335
   2         O               -58.026187         78.664650
   3         O                -7.512336         16.221252
   4         O                -5.397069         14.560336
   5         O                -5.397069         14.560334
   6         O                -5.395431         14.564595
   7         O                -4.836758         11.076682
   8         O                -3.140673          9.722730
   9         O                -3.139690          9.724745
  10         O                -3.139689          9.724736
  11         O                -0.924591          1.524069
  12         O                -0.578849          1.063864
  13         O                -0.578823          1.063861
  14         O                -0.564556          0.832916
  15         O                -0.428638          1.252940
  16         O                -0.397378          0.644379
  17         O                -0.397343          0.644336
  18         V                 0.105849          0.609140
  19         V                 0.141985          0.761538
  20         V                 0.142038          0.761897
  21         V                 0.208240          0.436965
  22         V                 0.208257          0.437325
  23         V                 0.221296          1.211187
  24         V                 0.290954          1.391663
  25         V                 0.325249          0.848318
  26         V                 0.408274          1.474436
  27         V                 0.413728          1.517158
  28         V                 0.413768          1.517226
  29         V                 0.581358          2.429296
  30         V                 0.581388          2.429362
  31         V                 0.596848          2.106023
  32         V                 0.828515          2.286467
  33         V                 1.176195          2.570941
  34         V                 1.230899          2.508035
  35         V                 1.230932          2.508220
  36         V                 1.413444          2.382138
  37         V                 1.413505          2.382238
  38         V                 1.449481          2.330681
 Total kinetic energy from orbitals= 5.825095173605D+02
 1\1\GINC-IISERK51\SP\RHF\3-21G\Al1H6P1\GAUSSIAN\17-Jun-2025\0\\# hf/3-
 21g pop=full geom=connectivity\\Title Card Required\\0,1\P,0,1.237325,
 0.000189,-0.000009\H,0,1.894758,0.143704,-1.237879\H,0,1.891895,-1.145
 438,0.494192\H,0,1.894889,0.999264,0.744676\Al,0,-1.479983,0.000031,-0
 .000066\H,0,-1.665826,-1.281386,-0.95529\H,0,-1.667748,-0.187238,1.586
 925\H,0,-1.668053,1.467865,-0.631623\\Version=EM64L-G16RevB.01\State=1
 -A\HF=-583.0088551\RMSD=6.437e-09\Dipole=1.6673559,0.0002954,-0.000012
 7\Quadrupole=2.3678181,-1.1848371,-1.182981,0.0026673,0.0014842,0.0000
 885\PG=C01 [X(Al1H6P1)]\\@


 "WHERE SHALL I START, PLEASE YOUR MAJESTY?" HE ASKED.
 "BEGIN AT THE BEGINNING," THE KING SAID GRAVELY,
 "AND GO ON TILL YOU COME TO THE END: THEN STOP." 

                                      -- LEWIS CARROLL
 Job cpu time:       0 days  0 hours  0 minutes  0.5 seconds.
 Elapsed time:       0 days  0 hours  0 minutes  0.5 seconds.
 File lengths (MBytes):  RWF=      6 Int=      0 D2E=      0 Chk=      1 Scr=      1
 Normal termination of Gaussian 16 at Tue Jun 17 15:24:51 2025.
