 Entering Gaussian System, Link 0=g16
 Input=/home/gaussian/Documents/Summer_Internship/Acid_Base_adduct/Adduct/PH3-AlH3/PH3_AlH3_adduct_opt.com
 Output=/home/gaussian/Documents/Summer_Internship/Acid_Base_adduct/Adduct/PH3-AlH3/PH3_AlH3_adduct_opt.log
 Initial command:
 /usr/local/g16/l1.exe "/home/gaussian/tmp/Gau-92379.inp" -scrdir="/home/gaussian/tmp/"
 Entering Link 1 = /usr/local/g16/l1.exe PID=     92382.
  
 Copyright (c) 1988-2017, Gaussian, Inc.  All Rights Reserved.
  
 This is part of the Gaussian(R) 16 program.  It is based on
 the Gaussian(R) 09 system (copyright 2009, Gaussian, Inc.),
 the Gaussian(R) 03 system (copyright 2003, Gaussian, Inc.),
 the Gaussian(R) 98 system (copyright 1998, Gaussian, Inc.),
 the Gaussian(R) 94 system (copyright 1995, Gaussian, Inc.),
 the Gaussian 92(TM) system (copyright 1992, Gaussian, Inc.),
 the Gaussian 90(TM) system (copyright 1990, Gaussian, Inc.),
 the Gaussian 88(TM) system (copyright 1988, Gaussian, Inc.),
 the Gaussian 86(TM) system (copyright 1986, Carnegie Mellon
 University), and the Gaussian 82(TM) system (copyright 1983,
 Carnegie Mellon University). Gaussian is a federally registered
 trademark of Gaussian, Inc.
  
 This software contains proprietary and confidential information,
 including trade secrets, belonging to Gaussian, Inc.
  
 This software is provided under written license and may be
 used, copied, transmitted, or stored only in accord with that
 written license.
  
 The following legend is applicable only to US Government
 contracts under FAR:
  
                    RESTRICTED RIGHTS LEGEND
  
 Use, reproduction and disclosure by the US Government is
 subject to restrictions as set forth in subparagraphs (a)
 and (c) of the Commercial Computer Software - Restricted
 Rights clause in FAR 52.227-19.
  
 Gaussian, Inc.
 340 Quinnipiac St., Bldg. 40, Wallingford CT 06492
  
  
 ---------------------------------------------------------------
 Warning -- This program may not be used in any manner that
 competes with the business of Gaussian, Inc. or will provide
 assistance to any competitor of Gaussian, Inc.  The licensee
 of this program is prohibited from giving any competitor of
 Gaussian, Inc. access to this program.  By using this program,
 the user acknowledges that Gaussian, Inc. is engaged in the
 business of creating and licensing software in the field of
 computational chemistry and represents and warrants to the
 licensee that it is not a competitor of Gaussian, Inc. and that
 it will not use this program in any manner prohibited above.
 ---------------------------------------------------------------
  

 Cite this work as:
 Gaussian 16, Revision B.01,
 M. J. Frisch, G. W. Trucks, H. B. Schlegel, G. E. Scuseria, 
 M. A. Robb, J. R. Cheeseman, G. Scalmani, V. Barone, 
 G. A. Petersson, H. Nakatsuji, X. Li, M. Caricato, A. V. Marenich, 
 J. Bloino, B. G. Janesko, R. Gomperts, B. Mennucci, H. P. Hratchian, 
 J. V. Ortiz, A. F. Izmaylov, J. L. Sonnenberg, D. Williams-Young, 
 F. Ding, F. Lipparini, F. Egidi, J. Goings, B. Peng, A. Petrone, 
 T. Henderson, D. Ranasinghe, V. G. Zakrzewski, J. Gao, N. Rega, 
 G. Zheng, W. Liang, M. Hada, M. Ehara, K. Toyota, R. Fukuda, 
 J. Hasegawa, M. Ishida, T. Nakajima, Y. Honda, O. Kitao, H. Nakai, 
 T. Vreven, K. Throssell, J. A. Montgomery, Jr., J. E. Peralta, 
 F. Ogliaro, M. J. Bearpark, J. J. Heyd, E. N. Brothers, K. N. Kudin, 
 V. N. Staroverov, T. A. Keith, R. Kobayashi, J. Normand, 
 K. Raghavachari, A. P. Rendell, J. C. Burant, S. S. Iyengar, 
 J. Tomasi, M. Cossi, J. M. Millam, M. Klene, C. Adamo, R. Cammi, 
 J. W. Ochterski, R. L. Martin, K. Morokuma, O. Farkas, 
 J. B. Foresman, and D. J. Fox, Gaussian, Inc., Wallingford CT, 2016.
 
 ******************************************
 Gaussian 16:  EM64L-G16RevB.01 20-Dec-2017
                17-Jun-2025 
 ******************************************
 %chk=PH3_AlH3_adduct_opt.chk
 ----------------------------------------------
 # opt freq hf/3-21g pop=full geom=connectivity
 ----------------------------------------------
 1/18=20,19=15,38=1,57=2/1,3;
 2/9=110,12=2,17=6,18=5,40=1/2;
 3/5=5,11=9,25=1,30=1,71=1/1,2,3;
 4//1;
 5/5=2,38=5/2;
 6/7=3,28=1/1;
 7//1,2,3,16;
 1/18=20,19=15/3(2);
 2/9=110/2;
 99//99;
 2/9=110/2;
 3/5=5,11=9,25=1,30=1,71=1/1,2,3;
 4/5=5,16=3,69=1/1;
 5/5=2,38=5/2;
 7//1,2,3,16;
 1/18=20,19=15/3(-5);
 2/9=110/2;
 6/7=3,19=2,28=1/1;
 99/9=1/99;
 -------------------
 Title Card Required
 -------------------
 Symbolic Z-matrix:
 Charge =  0 Multiplicity = 1
 P                    -1.24485   1.26898  -0.00745 
 H                    -0.79486  -0.00382  -0.00745 
 H                    -0.79484   1.90537   1.09482 
 H                    -0.79484   1.90537  -1.10972 
 Al                   -2.72906  -0.25385   1.68858 
 H                    -1.17906  -0.25385   1.68858 
 H                    -3.50406   1.08849   1.68858 
 H                    -3.50406  -1.59619   1.68858 
 

 GradGradGradGradGradGradGradGradGradGradGradGradGradGradGradGradGradGrad
 Berny optimization.
 Initialization pass.
                           ----------------------------
                           !    Initial Parameters    !
                           ! (Angstroms and Degrees)  !
 --------------------------                            --------------------------
 ! Name  Definition              Value          Derivative Info.                !
 --------------------------------------------------------------------------------
 ! R1    R(1,2)                  1.35           estimate D2E/DX2                !
 ! R2    R(1,3)                  1.35           estimate D2E/DX2                !
 ! R3    R(1,4)                  1.35           estimate D2E/DX2                !
 ! R4    R(1,5)                  2.72           estimate D2E/DX2                !
 ! R5    R(5,6)                  1.55           estimate D2E/DX2                !
 ! R6    R(5,7)                  1.55           estimate D2E/DX2                !
 ! R7    R(5,8)                  1.55           estimate D2E/DX2                !
 ! A1    A(2,1,3)              109.4712         estimate D2E/DX2                !
 ! A2    A(2,1,4)              109.4712         estimate D2E/DX2                !
 ! A3    A(2,1,5)               69.7593         estimate D2E/DX2                !
 ! A4    A(3,1,4)              109.4713         estimate D2E/DX2                !
 ! A5    A(3,1,5)               86.3704         estimate D2E/DX2                !
 ! A6    A(4,1,5)              162.7325         estimate D2E/DX2                !
 ! A7    A(1,5,6)               56.9299         estimate D2E/DX2                !
 ! A8    A(1,5,7)               77.759          estimate D2E/DX2                !
 ! A9    A(1,5,8)              139.2609         estimate D2E/DX2                !
 ! A10   A(6,5,7)              120.0            estimate D2E/DX2                !
 ! A11   A(6,5,8)              120.0            estimate D2E/DX2                !
 ! A12   A(7,5,8)              120.0            estimate D2E/DX2                !
 ! D1    D(2,1,5,6)             48.3914         estimate D2E/DX2                !
 ! D2    D(2,1,5,7)           -172.8613         estimate D2E/DX2                !
 ! D3    D(2,1,5,8)            -50.7149         estimate D2E/DX2                !
 ! D4    D(3,1,5,6)            -63.9036         estimate D2E/DX2                !
 ! D5    D(3,1,5,7)             74.8436         estimate D2E/DX2                !
 ! D6    D(3,1,5,8)           -163.01           estimate D2E/DX2                !
 ! D7    D(4,1,5,6)            139.0005         estimate D2E/DX2                !
 ! D8    D(4,1,5,7)            -82.2522         estimate D2E/DX2                !
 ! D9    D(4,1,5,8)             39.8942         estimate D2E/DX2                !
 --------------------------------------------------------------------------------
 Trust Radius=3.00D-01 FncErr=1.00D-07 GrdErr=1.00D-07 EigMax=2.50D+02 EigMin=1.00D-04
 Number of steps in this run=     38 maximum allowed number of steps=    100.
 GradGradGradGradGradGradGradGradGradGradGradGradGradGradGradGradGradGrad

                          Input orientation:                          
 ---------------------------------------------------------------------
 Center     Atomic      Atomic             Coordinates (Angstroms)
 Number     Number       Type             X           Y           Z
 ---------------------------------------------------------------------
      1         15           0       -1.244848    1.268983   -0.007448
      2          1           0       -0.794864   -0.003815   -0.007448
      3          1           0       -0.794840    1.905373    1.094822
      4          1           0       -0.794840    1.905373   -1.109719
      5         13           0       -2.729058   -0.253848    1.688579
      6          1           0       -1.179058   -0.253848    1.688579
      7          1           0       -3.504058    1.088491    1.688579
      8          1           0       -3.504058   -1.596187    1.688579
 ---------------------------------------------------------------------
                    Distance matrix (angstroms):
                    1          2          3          4          5
     1  P    0.000000
     2  H    1.350000   0.000000
     3  H    1.350000   2.204541   0.000000
     4  H    1.350000   2.204541   2.204541   0.000000
     5  Al   2.720000   2.584595   2.959050   4.029132   0.000000
     6  H    2.280318   1.756881   2.272093   3.555324   1.550000
     7  H    2.830744   3.377777   2.891315   3.979651   1.550000
     8  H    4.023647   3.570979   4.466915   5.237486   1.550000
                    6          7          8
     6  H    0.000000
     7  H    2.684679   0.000000
     8  H    2.684679   2.684679   0.000000
 Stoichiometry    AlH6P
 Framework group  C1[X(AlH6P)]
 Deg. of freedom    18
 Full point group                 C1      NOp   1
 Largest Abelian subgroup         C1      NOp   1
 Largest concise Abelian subgroup C1      NOp   1
                         Standard orientation:                         
 ---------------------------------------------------------------------
 Center     Atomic      Atomic             Coordinates (Angstroms)
 Number     Number       Type             X           Y           Z
 ---------------------------------------------------------------------
      1         15           0        1.256909    0.018608   -0.065923
      2          1           0        0.787590   -1.246724   -0.031646
      3          1           0        1.212892    0.548657    1.174887
      4          1           0        2.532411    0.013648   -0.508157
      5         13           0       -1.461658    0.025331    0.022110
      6          1           0       -0.586567   -0.824560    0.978353
      7          1           0       -1.136312    1.524528   -0.199384
      8          1           0       -2.662094   -0.623973   -0.712638
 ---------------------------------------------------------------------
 Rotational constants (GHZ):          58.8076624           3.9716933           3.9093555
 Standard basis: 3-21G (6D, 7F)
 There are    38 symmetry adapted cartesian basis functions of A   symmetry.
 There are    38 symmetry adapted basis functions of A   symmetry.
    38 basis functions,    72 primitive gaussians,    38 cartesian basis functions
    17 alpha electrons       17 beta electrons
       nuclear repulsion energy        86.6777696676 Hartrees.



 Warning!  P  atom    1 may be hypervalent but has no d functions.



 NAtoms=    8 NActive=    8 NUniq=    8 SFac= 1.00D+00 NAtFMM=   60 NAOKFM=F Big=F
 Integral buffers will be    131072 words long.
 Raffenetti 1 integral format.
 Two-electron integral symmetry is turned on.
 One-electron integrals computed using PRISM.
 NBasis=    38 RedAO= T EigKep=  2.92D-02  NBF=    38
 NBsUse=    38 1.00D-06 EigRej= -1.00D+00 NBFU=    38
 ExpMin= 6.39D-02 ExpMax= 1.05D+03 ExpMxC= 1.05D+03 IAcc=3 IRadAn=         5 AccDes= 0.00D+00
 Harris functional with IExCor=  205 and IRadAn=       5 diagonalized for initial guess.
 HarFok:  IExCor=  205 AccDes= 0.00D+00 IRadAn=         5 IDoV= 1 UseB2=F ITyADJ=14
 ICtDFT=  3500011 ScaDFX=  1.000000  1.000000  1.000000  1.000000
 FoFCou: FMM=F IPFlag=           0 FMFlag=      100000 FMFlg1=           0
         NFxFlg=           0 DoJE=T BraDBF=F KetDBF=T FulRan=T
         wScrn=  0.000000 ICntrl=       500 IOpCl=  0 I1Cent=   200000004 NGrid=           0
         NMat0=    1 NMatS0=      1 NMatT0=    0 NMatD0=    1 NMtDS0=    0 NMtDT0=    0
 Petite list used in FoFCou.
 Keep R1 ints in memory in canonical form, NReq=1087925.
 Requested convergence on RMS density matrix=1.00D-08 within 128 cycles.
 Requested convergence on MAX density matrix=1.00D-06.
 Requested convergence on             energy=1.00D-06.
 No special actions if energy rises.
 SCF Done:  E(RHF) =  -582.934250804     A.U. after   10 cycles
            NFock= 10  Conv=0.66D-08     -V/T= 1.9999

 **********************************************************************

            Population analysis using the SCF Density.

 **********************************************************************

 Orbital symmetries:
       Occupied  (A) (A) (A) (A) (A) (A) (A) (A) (A) (A) (A) (A)
                 (A) (A) (A) (A) (A)
       Virtual   (A) (A) (A) (A) (A) (A) (A) (A) (A) (A) (A) (A)
                 (A) (A) (A) (A) (A) (A) (A) (A) (A)
 The electronic state is 1-A.
 Alpha  occ. eigenvalues --  -79.38586 -58.03617  -7.46594  -5.35211  -5.35147
 Alpha  occ. eigenvalues --   -5.34749  -4.84942  -3.15286  -3.15216  -3.15136
 Alpha  occ. eigenvalues --   -0.91202  -0.62951  -0.58345  -0.53727  -0.42967
 Alpha  occ. eigenvalues --   -0.40829  -0.34997
 Alpha virt. eigenvalues --    0.06575   0.15220   0.17522   0.19250   0.20870
 Alpha virt. eigenvalues --    0.24798   0.26531   0.33962   0.39454   0.41641
 Alpha virt. eigenvalues --    0.43969   0.57471   0.59708   0.63700   0.80636
 Alpha virt. eigenvalues --    1.23383   1.28407   1.31670   1.38220   1.41163
 Alpha virt. eigenvalues --    1.45179
     Molecular Orbital Coefficients:
                           1         2         3         4         5
                           O         O         O         O         O
     Eigenvalues --   -79.38586 -58.03617  -7.46594  -5.35211  -5.35147
   1 1   P  1S          0.98702  -0.00001  -0.29558   0.00004   0.00007
   2        2S          0.04876  -0.00005   0.99675  -0.00047  -0.00013
   3        2PX        -0.00002  -0.00008   0.00583   0.83115  -0.13999
   4        2PY        -0.00007   0.00001  -0.00547   0.44111   0.65324
   5        2PZ         0.00009   0.00001   0.00614  -0.24262   0.70640
   6        3S         -0.01585  -0.00122   0.13160  -0.00591   0.00202
   7        3PX         0.00044   0.00066  -0.00244   0.08081  -0.01431
   8        3PY         0.00009  -0.00003  -0.00166   0.04087   0.06026
   9        3PZ        -0.00020  -0.00006   0.00263  -0.02340   0.06575
  10        4S          0.01090   0.00213  -0.08332   0.00903  -0.00334
  11        4PX        -0.00152  -0.00286   0.01086  -0.04245   0.00985
  12        4PY        -0.00046  -0.00028   0.00469  -0.01519  -0.02159
  13        4PZ         0.00101   0.00107  -0.00900   0.01362  -0.02663
  14 2   H  1S          0.00099  -0.00015  -0.00463   0.00455   0.00433
  15        2S         -0.00200  -0.00096   0.01612  -0.00876  -0.00479
  16 3   H  1S          0.00104   0.00001  -0.00492   0.00036  -0.00701
  17        2S         -0.00212  -0.00116   0.01669  -0.00413   0.01208
  18 4   H  1S          0.00098  -0.00018  -0.00458  -0.00787   0.00331
  19        2S         -0.00090   0.00150   0.00750   0.01824  -0.00739
  20 5   Al 1S         -0.00000   0.98853   0.00004  -0.00002  -0.00000
  21        2S          0.00006   0.04417  -0.00052   0.00000   0.00006
  22        2PX         0.00003   0.00012  -0.00038   0.00024  -0.00018
  23        2PY         0.00002   0.00001  -0.00016   0.00016  -0.00000
  24        2PZ         0.00000  -0.00000  -0.00002  -0.00010   0.00004
  25        3S          0.00001  -0.01121  -0.00051  -0.00202   0.00075
  26        3PX        -0.00049  -0.00076   0.00407  -0.00442   0.00217
  27        3PY        -0.00011  -0.00013   0.00106  -0.00128   0.00000
  28        3PZ        -0.00003   0.00001   0.00035   0.00100  -0.00033
  29        4S         -0.00123   0.00318   0.01012  -0.00620  -0.00225
  30        4PX        -0.00116  -0.00057   0.00963  -0.00491   0.00147
  31        4PY        -0.00025  -0.00033   0.00273  -0.00007   0.00243
  32        4PZ         0.00003   0.00001  -0.00030  -0.00074   0.00307
  33 6   H  1S         -0.00018   0.00107   0.00083  -0.00107   0.00006
  34        2S         -0.00001  -0.00032   0.00064  -0.00362   0.00256
  35 7   H  1S          0.00011   0.00106  -0.00057   0.00044  -0.00067
  36        2S          0.00008   0.00027  -0.00185   0.00021   0.00235
  37 8   H  1S          0.00003   0.00100  -0.00031   0.00004  -0.00069
  38        2S         -0.00036  -0.00028   0.00337  -0.00145   0.00399
                           6         7         8         9        10
                           O         O         O         O         O
     Eigenvalues --    -5.34749  -4.84942  -3.15286  -3.15216  -3.15136
   1 1   P  1S          0.00325   0.00004   0.00003   0.00004   0.00004
   2        2S         -0.01163   0.00021   0.00060   0.00042   0.00015
   3        2PX         0.48392   0.00026   0.00011   0.00010   0.00024
   4        2PY        -0.56999  -0.00004  -0.00017  -0.00005   0.00019
   5        2PZ         0.62312  -0.00009  -0.00013   0.00003  -0.00022
   6        3S         -0.00112   0.00393   0.00647   0.00568   0.00352
   7        3PX         0.04459  -0.00237  -0.00276  -0.00165  -0.00182
   8        3PY        -0.05063  -0.00001   0.00054   0.00027  -0.00082
   9        3PZ         0.05521   0.00040   0.00098   0.00018   0.00120
  10        4S          0.00054  -0.00688  -0.00991  -0.01322  -0.00593
  11        4PX        -0.02051   0.01065   0.02274   0.01348   0.01024
  12        4PY         0.01625   0.00244   0.00108   0.00116   0.00344
  13        4PZ        -0.01684  -0.00652  -0.01103  -0.00500  -0.00631
  14 2   H  1S         -0.00309   0.00006   0.00108   0.00002   0.00008
  15        2S          0.00351   0.00757   0.00809   0.00574   0.00280
  16 3   H  1S         -0.00264  -0.00075   0.00008   0.00023   0.00029
  17        2S          0.00325   0.00857   0.00981   0.00753   0.00297
  18 4   H  1S         -0.00221   0.00073   0.00098   0.00061   0.00049
  19        2S          0.00610  -0.00645  -0.01354  -0.00636  -0.00595
  20 5   Al 1S         -0.00002  -0.28412   0.00072   0.00002  -0.00012
  21        2S          0.00020   1.01087  -0.00270  -0.00025   0.00030
  22        2PX         0.00010   0.00097   0.86068   0.43095   0.16752
  23        2PY        -0.00006  -0.00123  -0.35773   0.39445   0.82056
  24        2PZ         0.00006  -0.00048  -0.29487   0.78431  -0.50533
  25        3S          0.00018   0.09262   0.00274   0.00049  -0.00007
  26        3PX        -0.00184   0.00434   0.08398   0.04398   0.01701
  27        3PY         0.00068  -0.00012  -0.03110   0.03621   0.07565
  28        3PZ        -0.00059  -0.00023  -0.02525   0.07046  -0.04569
  29        4S         -0.00676  -0.03411   0.00191   0.00443   0.00231
  30        4PX        -0.00474  -0.00296  -0.02313  -0.00578  -0.00267
  31        4PY        -0.00146   0.00088   0.01307  -0.00862  -0.01943
  32        4PZ         0.00173  -0.00037   0.01127  -0.02209   0.01458
  33 6   H  1S         -0.00017  -0.00373  -0.00304  -0.00253   0.00219
  34        2S          0.00187   0.00197   0.00185  -0.00127   0.00651
  35 7   H  1S          0.00032  -0.00393  -0.00007  -0.00177  -0.00398
  36        2S         -0.00052   0.00051   0.00016  -0.00354  -0.00600
  37 8   H  1S         -0.00008  -0.00314   0.00156   0.00373   0.00087
  38        2S         -0.00022  -0.00053   0.00484   0.00672   0.00299
                          11        12        13        14        15
                           O         O         O         O         O
     Eigenvalues --    -0.91202  -0.62951  -0.58345  -0.53727  -0.42967
   1 1   P  1S          0.06319   0.00844   0.00012  -0.00238   0.00849
   2        2S         -0.33962  -0.04512  -0.00062   0.01302  -0.04753
   3        2PX        -0.01301  -0.13935   0.01811  -0.06755   0.06160
   4        2PY         0.02479  -0.05564  -0.13944  -0.05757  -0.03586
   5        2PZ        -0.02611   0.03248  -0.13283   0.07072   0.06800
   6        3S          0.38271   0.06298   0.00202  -0.01581   0.05574
   7        3PX         0.03120   0.26715  -0.03623   0.13432  -0.12430
   8        3PY        -0.04730   0.10721   0.27351   0.11404   0.07114
   9        3PZ         0.04991  -0.06122   0.26056  -0.14203  -0.13331
  10        4S          0.43574   0.04684   0.00667  -0.02217   0.12531
  11        4PX        -0.03633   0.14868  -0.01774   0.02540  -0.12388
  12        4PY        -0.01965   0.03066   0.10639   0.06414   0.08240
  13        4PZ         0.02761  -0.02633   0.10380  -0.06254  -0.13932
  14 2   H  1S          0.13747  -0.12374  -0.17300  -0.11827  -0.01456
  15        2S          0.06914  -0.16216  -0.23960  -0.16861  -0.02471
  16 3   H  1S          0.13159   0.00440   0.25062  -0.07193  -0.05261
  17        2S          0.05993   0.00268   0.32337  -0.09892  -0.07434
  18 4   H  1S          0.12191   0.20111  -0.08402   0.13411  -0.02663
  19        2S          0.08200   0.21261  -0.10761   0.20835  -0.03528
  20 5   Al 1S          0.00565  -0.02883   0.00402   0.04074  -0.00297
  21        2S         -0.02647   0.14225  -0.02022  -0.20463   0.01541
  22        2PX        -0.01647   0.02817  -0.00184   0.02618  -0.07493
  23        2PY         0.00333  -0.01418  -0.01506  -0.01326  -0.12238
  24        2PZ        -0.00298   0.01455  -0.00419   0.01806  -0.00405
  25        3S          0.04006  -0.20564   0.02772   0.28646  -0.01881
  26        3PX         0.01866  -0.04532   0.00344  -0.04491   0.14026
  27        3PY        -0.00591   0.02320   0.02889   0.02387   0.22598
  28        3PZ         0.00457  -0.02427   0.00835  -0.03050   0.01183
  29        4S         -0.01817  -0.06595   0.00801   0.18701  -0.00956
  30        4PX        -0.02544   0.01752   0.00205   0.00040   0.04199
  31        4PY        -0.00267  -0.00229   0.00131  -0.00004   0.07035
  32        4PZ        -0.00280   0.00045   0.00443  -0.00112   0.00658
  33 6   H  1S          0.02969  -0.12665   0.00189   0.05774  -0.06250
  34        2S          0.02701  -0.18993   0.01184   0.08091  -0.13269
  35 7   H  1S          0.00933  -0.05945   0.02704   0.12905   0.17660
  36        2S          0.01039  -0.07629   0.04398   0.18662   0.30025
  37 8   H  1S          0.00409  -0.05263   0.00365   0.14547  -0.16910
  38        2S         -0.00246  -0.06844   0.01096   0.21994  -0.29693
                          16        17        18        19        20
                           O         O         V         V         V
     Eigenvalues --    -0.40829  -0.34997   0.06575   0.15220   0.17522
   1 1   P  1S         -0.00784   0.02014   0.01268  -0.01555   0.00843
   2        2S          0.04504  -0.11522  -0.07460   0.09852  -0.05188
   3        2PX        -0.03981   0.11258   0.01845  -0.04649  -0.02822
   4        2PY        -0.04459  -0.11155   0.00255  -0.03067  -0.08593
   5        2PZ         0.02789   0.11288   0.03474   0.05062  -0.03810
   6        3S         -0.04192   0.11270   0.06838  -0.03585   0.03190
   7        3PX         0.08116  -0.21753  -0.02611   0.05643   0.06512
   8        3PY         0.09231   0.22316  -0.01065   0.06686   0.14243
   9        3PZ        -0.05889  -0.22367  -0.06326  -0.08879   0.06651
  10        4S         -0.13420   0.35634   0.38530  -0.88014   0.41958
  11        4PX         0.01902  -0.34162  -0.12609   0.93259   0.16991
  12        4PY         0.05767   0.23748   0.02035   0.24257   1.12203
  13        4PZ        -0.01916  -0.27005  -0.20833  -0.69204   0.55150
  14 2   H  1S         -0.09101  -0.06749   0.02185   0.05258   0.09085
  15        2S         -0.12691  -0.13379   0.05220   0.57835   0.97041
  16 3   H  1S         -0.04149  -0.03830  -0.01218   0.07248  -0.08124
  17        2S         -0.04922  -0.06604   0.00527   0.70496  -0.86693
  18 4   H  1S          0.08676  -0.06213  -0.03739  -0.04588  -0.02855
  19        2S          0.18470  -0.05713  -0.17483  -0.61628  -0.20440
  20 5   Al 1S          0.00319  -0.00649  -0.00267  -0.00065  -0.01265
  21        2S         -0.01643   0.03426   0.01241  -0.05055   0.08500
  22        2PX        -0.09445  -0.00063   0.08799   0.03723   0.02019
  23        2PY         0.05384   0.07382  -0.03312   0.01908   0.00001
  24        2PZ        -0.10134   0.02316  -0.10640  -0.00981  -0.00865
  25        3S          0.02199  -0.04306  -0.03313  -0.34065   0.00477
  26        3PX         0.17537  -0.00106  -0.15000  -0.13331  -0.02941
  27        3PY        -0.09490  -0.14335   0.05574  -0.04216  -0.01126
  28        3PZ         0.18247  -0.03808   0.18133   0.02158   0.01574
  29        4S         -0.00267  -0.06733   0.02002   1.25717  -0.79551
  30        4PX         0.04365  -0.02013  -0.53657   0.64655  -0.56037
  31        4PY        -0.01709  -0.06962   0.25401  -0.60231  -0.51629
  32        4PZ         0.05871  -0.03802   0.70424   0.27783  -0.09740
  33 6   H  1S          0.23085  -0.01743  -0.02370  -0.03336   0.02595
  34        2S          0.48454  -0.06481  -0.10687  -0.54065   0.27931
  35 7   H  1S         -0.05819  -0.14321  -0.02809   0.01994   0.05107
  36        2S         -0.11075  -0.28598  -0.10617   0.12577   0.67597
  37 8   H  1S         -0.14069   0.06013   0.00734  -0.04374   0.01904
  38        2S         -0.25384   0.11432   0.03247  -0.29519  -0.07157
                          21        22        23        24        25
                           V         V         V         V         V
     Eigenvalues --     0.19250   0.20870   0.24798   0.26531   0.33962
   1 1   P  1S          0.00316  -0.01607  -0.02404  -0.01670  -0.00708
   2        2S         -0.02152   0.10334   0.15023   0.10387   0.04334
   3        2PX         0.03457   0.00011   0.08069   0.05688  -0.01488
   4        2PY         0.02930  -0.01906  -0.04015   0.00824  -0.01797
   5        2PZ        -0.01780   0.04702  -0.05131   0.05124   0.00635
   6        3S         -0.00366  -0.03226  -0.09244  -0.07502  -0.03803
   7        3PX        -0.05401  -0.03887  -0.18899  -0.10266   0.05544
   8        3PY        -0.06475   0.02712   0.07646  -0.01825   0.03685
   9        3PZ         0.02455  -0.11182   0.10112  -0.09305   0.01234
  10        4S          0.15259  -0.99892  -1.34592  -0.87128  -0.37347
  11        4PX        -0.48269   0.50707  -0.62870  -0.93382  -0.27694
  12        4PY        -0.21330   0.36113   0.62772  -0.11041   0.25876
  13        4PZ         0.32772  -0.28698   0.50042  -0.69104  -0.34995
  14 2   H  1S         -0.01944   0.07695   0.08398   0.02142   0.05127
  15        2S         -0.48955   0.72707   0.91461   0.24581   0.59893
  16 3   H  1S         -0.02282  -0.00944  -0.00951   0.10748   0.07916
  17        2S         -0.34873   0.29060  -0.17935   1.28249   0.54176
  18 4   H  1S          0.04017  -0.00100   0.10523   0.05846  -0.00445
  19        2S          0.43827  -0.06280   1.35201   0.95769   0.22744
  20 5   Al 1S          0.00613  -0.01093   0.00425  -0.02707   0.05832
  21        2S          0.00117   0.05930  -0.05187   0.14974  -0.12525
  22        2PX        -0.03430   0.03720  -0.04763  -0.00428   0.06581
  23        2PY        -0.00217   0.00548  -0.00596  -0.03488  -0.01567
  24        2PZ        -0.00006   0.00084   0.03746   0.00199  -0.02619
  25        3S          0.26290  -0.08491  -0.14437  -0.21982   1.74780
  26        3PX         0.08514  -0.15019   0.19980   0.06923  -0.23729
  27        3PY         0.02807  -0.03832   0.00508   0.14066   0.04986
  28        3PZ        -0.00842  -0.01333  -0.13416  -0.01810   0.09257
  29        4S         -0.64000  -0.51266   1.00529  -1.26200  -1.59205
  30        4PX         0.69372   1.10787  -0.05367  -1.09175  -0.42603
  31        4PY        -0.78246   0.96775   0.22175  -0.48690  -0.10497
  32        4PZ         0.86448   0.27683   0.17088  -0.15289  -0.20985
  33 6   H  1S         -0.05448   0.04138  -0.08030   0.03184  -0.01901
  34        2S         -0.80442   0.36821  -0.60722   0.66556   0.05567
  35 7   H  1S          0.04170   0.00945  -0.06379   0.06702  -0.01490
  36        2S          0.56124  -0.27957  -0.62451   0.83561  -0.01289
  37 8   H  1S          0.05152   0.09259  -0.02972   0.02481  -0.03253
  38        2S          0.62974   1.05920  -0.22971   0.04350  -0.40645
                          26        27        28        29        30
                           V         V         V         V         V
     Eigenvalues --     0.39454   0.41641   0.43969   0.57471   0.59708
   1 1   P  1S         -0.00323   0.00408  -0.01433  -0.03692   0.00034
   2        2S          0.01747  -0.02307   0.05593   0.09622   0.00151
   3        2PX         0.04435   0.01114  -0.09773   0.22422  -0.07118
   4        2PY        -0.00308  -0.04824  -0.00140  -0.06196  -0.27253
   5        2PZ        -0.02107   0.01797   0.06357   0.00159  -0.17942
   6        3S         -0.04069   0.03790  -0.35172  -1.35481   0.03258
   7        3PX        -0.13133  -0.02739   0.24340  -0.84965   0.26702
   8        3PY         0.00765   0.15289  -0.00227   0.24262   1.02382
   9        3PZ         0.04615  -0.06110  -0.19898  -0.01044   0.67622
  10        4S         -0.18469   0.11740   0.48395   2.26326  -0.11014
  11        4PX         0.01423   0.05428   0.54263   0.93650  -0.24918
  12        4PY        -0.01875  -0.10430   0.15987  -0.40938  -0.95222
  13        4PZ         0.24479   0.10443  -0.20382   0.15720  -0.67223
  14 2   H  1S          0.01843  -0.02237  -0.00801  -0.10825  -0.13135
  15        2S         -0.15370  -0.26098   0.39981  -0.42401   0.19070
  16 3   H  1S         -0.02283  -0.03014  -0.04099  -0.07865   0.15283
  17        2S         -0.17412  -0.22784   0.30097  -0.39603  -0.07174
  18 4   H  1S         -0.00201   0.00665  -0.04164  -0.24448   0.00569
  19        2S          0.21784  -0.06683  -0.70669  -0.37833   0.01631
  20 5   Al 1S         -0.00517  -0.00200   0.00849   0.00190  -0.00448
  21        2S         -0.00450  -0.00759  -0.01361   0.01320   0.02052
  22        2PX         0.05289   0.11075  -0.27061   0.01160  -0.02737
  23        2PY        -0.14932  -0.24709  -0.12002   0.02485   0.00397
  24        2PZ        -0.27231   0.16137   0.00194   0.01540  -0.01395
  25        3S         -0.25555  -0.13944   0.29166   0.17959  -0.07219
  26        3PX        -0.20108  -0.53536   1.26180   0.01252   0.11797
  27        3PY         0.67268   1.15796   0.56576  -0.12593  -0.04437
  28        3PZ         1.18823  -0.74965   0.03104  -0.08619   0.06479
  29        4S          0.46315   0.26416  -0.23119  -0.28251  -0.12627
  30        4PX         0.63488   0.35813  -0.55241  -0.25625   0.06276
  31        4PY        -0.31610  -0.37837  -0.01679  -0.05619   0.24974
  32        4PZ        -0.79557   0.26409   0.18251   0.05061   0.20936
  33 6   H  1S         -0.01362  -0.00475   0.03699   0.00925   0.02959
  34        2S         -0.24005   0.62729  -0.16131   0.06657  -0.12810
  35 7   H  1S         -0.01434  -0.00745   0.00147  -0.00056   0.01764
  36        2S         -0.33527  -0.60511  -0.44543   0.23612   0.02222
  37 8   H  1S         -0.00126   0.00260  -0.00188  -0.00077   0.05078
  38        2S          0.37085  -0.10739   0.61257  -0.11780   0.26211
                          31        32        33        34        35
                           V         V         V         V         V
     Eigenvalues --     0.63700   0.80636   1.23383   1.28407   1.31670
   1 1   P  1S          0.00373  -0.04899  -0.02490   0.00256   0.00049
   2        2S         -0.02009   0.13249   0.11182  -0.01006  -0.00904
   3        2PX        -0.01948  -0.20803   0.07480   0.05521  -0.15271
   4        2PY        -0.18327   0.04629  -0.04002   0.13707  -0.00553
   5        2PZ         0.27833  -0.01577   0.06351   0.06750   0.10716
   6        3S          0.04151  -1.78830  -0.48168   0.06360  -0.05665
   7        3PX         0.12437   0.91701  -0.29466  -0.16010   0.50770
   8        3PY         0.68658  -0.16500   0.11657  -0.40664   0.02210
   9        3PZ        -1.06066   0.01586  -0.17975  -0.21599  -0.33961
  10        4S         -0.05671   2.89243   1.69347  -0.21960  -0.01291
  11        4PX        -0.43310  -1.70764   0.76206   0.21952  -1.04507
  12        4PY        -0.65042  -0.04620  -0.27452   0.74372  -0.07605
  13        4PZ         1.19009   0.49711   0.32295   0.45277   0.71410
  14 2   H  1S         -0.08468  -0.07708   0.76762  -1.00821   0.29933
  15        2S          0.05120  -0.59774  -1.22894   1.44993  -0.49434
  16 3   H  1S         -0.08954  -0.08074   0.87166   0.71759   0.58019
  17        2S         -0.04135  -0.61729  -1.33655  -0.98724  -0.88723
  18 4   H  1S          0.12141   0.17835   0.63322   0.15850  -1.11677
  19        2S          0.18432   0.03299  -1.24843  -0.11627   1.68384
  20 5   Al 1S          0.00016  -0.00902  -0.00001  -0.00504  -0.00176
  21        2S         -0.00050   0.05533  -0.02556   0.03252  -0.01204
  22        2PX         0.03408   0.10567  -0.02200   0.00005   0.02172
  23        2PY         0.04132   0.01429  -0.00784  -0.03401  -0.01704
  24        2PZ        -0.02949   0.00121   0.00274  -0.00046   0.00687
  25        3S          0.00474  -0.09042  -0.16677   0.01142  -0.18655
  26        3PX        -0.16034  -0.62644   0.06266   0.01920  -0.19857
  27        3PY        -0.23901  -0.12007   0.05273   0.05449   0.00293
  28        3PZ         0.17458  -0.00096  -0.04229   0.02075  -0.00127
  29        4S          0.08207  -0.63980   0.43816   0.34991   0.02545
  30        4PX         0.00021  -0.50640   0.29709   0.03705   0.07968
  31        4PY         0.02489  -0.26480  -0.00818  -0.03885  -0.17031
  32        4PZ        -0.20789  -0.00654   0.04777   0.07374   0.03648
  33 6   H  1S          0.00109   0.03094  -0.01226   0.38080   0.11932
  34        2S         -0.40654  -0.19189   0.08975  -0.61716  -0.26674
  35 7   H  1S         -0.01116  -0.09498  -0.03249  -0.08320  -0.31558
  36        2S          0.15023   0.32423  -0.08042  -0.05167   0.33397
  37 8   H  1S         -0.01798   0.00463   0.07623   0.33090  -0.02094
  38        2S         -0.15943  -0.33062  -0.01197  -0.34943  -0.02267
                          36        37        38
                           V         V         V
     Eigenvalues --     1.38220   1.41163   1.45179
   1 1   P  1S          0.00070  -0.00313   0.00380
   2        2S          0.00584   0.01211  -0.01057
   3        2PX         0.02897  -0.03579   0.02993
   4        2PY         0.02281   0.01977  -0.02722
   5        2PZ        -0.00178   0.03147  -0.03658
   6        3S          0.10040  -0.08585   0.14520
   7        3PX        -0.12261   0.11585  -0.13758
   8        3PY        -0.04695  -0.07393   0.08568
   9        3PZ         0.04327  -0.09231   0.11036
  10        4S         -0.10026   0.19457  -0.15176
  11        4PX         0.40371  -0.03841   0.20100
  12        4PY         0.10295   0.14242  -0.18080
  13        4PZ        -0.27923   0.03428  -0.36665
  14 2   H  1S         -0.30870  -0.13391   0.16039
  15        2S          0.41627   0.05444  -0.15284
  16 3   H  1S          0.19153   0.16482  -0.37108
  17        2S         -0.06185  -0.18099   0.78244
  18 4   H  1S          0.16453  -0.13886   0.13980
  19        2S         -0.40394   0.07503  -0.24577
  20 5   Al 1S          0.01663   0.00129   0.00401
  21        2S         -0.09086  -0.00707  -0.00479
  22        2PX        -0.00675  -0.06462  -0.05719
  23        2PY        -0.00590   0.03132  -0.07660
  24        2PZ         0.00981  -0.05904  -0.00696
  25        3S          0.08736   0.00068   0.14974
  26        3PX         0.09553   0.07107   0.15722
  27        3PY         0.03080  -0.01996   0.07782
  28        3PZ        -0.03250   0.05799   0.00292
  29        4S         -1.12446  -0.15508  -0.33905
  30        4PX         0.08770  -0.48147  -0.53235
  31        4PY         0.08051   0.20664  -0.61495
  32        4PZ         0.12383  -0.40830  -0.11334
  33 6   H  1S         -0.65610  -1.16952   0.09694
  34        2S          0.96322   1.42802   0.02238
  35 7   H  1S         -0.75389   0.26653  -1.09534
  36        2S          0.98265  -0.29839   1.43174
  37 8   H  1S         -0.88351   0.67100   0.77133
  38        2S          1.26188  -0.78832  -0.95458
     Density Matrix:
                           1         2         3         4         5
   1 1   P  1S          2.13238
   2        2S         -0.54297   2.26229
   3        2PX         0.00225  -0.01615   1.97432
   4        2PY        -0.00245   0.01373  -0.00976   1.97679
   5        2PZ         0.00283  -0.01534   0.01092  -0.01012   1.97742
   6        3S         -0.05345  -0.04024   0.00034  -0.01492   0.01797
   7        3PX        -0.00174   0.02155   0.01598   0.01845  -0.02103
   8        3PY         0.00495  -0.02696   0.01956   0.00571   0.02029
   9        3PZ        -0.00593   0.03046  -0.02155   0.01998   0.00528
  10        4S          0.14532  -0.57198   0.10068  -0.05554   0.05593
  11        4PX        -0.02792   0.12622  -0.23128   0.06577  -0.06398
  12        4PY         0.00423  -0.03630   0.04275  -0.16566   0.04903
  13        4PZ        -0.00238   0.03813  -0.04393   0.05102  -0.18588
  14 2   H  1S          0.01894  -0.08541   0.03418   0.11991  -0.00828
  15        2S         -0.01054   0.01721   0.02480   0.13248  -0.01293
  16 3   H  1S          0.02027  -0.09152   0.00229  -0.04532  -0.11488
  17        2S         -0.00900   0.00693  -0.00424  -0.04342  -0.10731
  18 4   H  1S          0.01845  -0.08166  -0.12077  -0.00036   0.04086
  19        2S          0.00097  -0.02149  -0.08698  -0.01537   0.04860
  20 5   Al 1S         -0.00040   0.00175   0.00010  -0.00091   0.00089
  21        2S          0.00242  -0.01162  -0.00043   0.00456  -0.00388
  22        2PX        -0.00117   0.00877  -0.01198   0.00707  -0.00924
  23        2PY         0.00051  -0.00202   0.00297  -0.00444   0.00364
  24        2PZ         0.00225  -0.01278   0.00593   0.00121   0.00432
  25        3S         -0.00183   0.01149   0.00146  -0.00786   0.00889
  26        3PX        -0.00199   0.00121   0.01176  -0.01433   0.02037
  27        3PY        -0.00175   0.00762  -0.00679   0.00867  -0.00794
  28        3PZ        -0.00416   0.02309  -0.00941  -0.00341  -0.00681
  29        4S         -0.01559   0.05954  -0.03837  -0.00219  -0.00413
  30        4PX        -0.01172   0.03945  -0.02009  -0.00335   0.00426
  31        4PY        -0.00384   0.01528  -0.00708   0.01651  -0.00578
  32        4PZ        -0.00243   0.01462  -0.01258   0.00288   0.00126
  33 6   H  1S         -0.00490   0.02515  -0.00516  -0.00451  -0.00126
  34        2S         -0.01302   0.07332  -0.03270  -0.01136  -0.00339
  35 7   H  1S         -0.00173   0.01219  -0.00476   0.00831  -0.00561
  36        2S         -0.00428   0.02833  -0.02206   0.03127  -0.01814
  37 8   H  1S          0.00094  -0.00531  -0.00087  -0.00121  -0.00240
  38        2S         -0.00167  -0.00071  -0.00451   0.00169   0.00125
                           6         7         8         9        10
   6        3S          0.37193
   7        3PX        -0.01841   0.33960
   8        3PY         0.02473  -0.03426   0.34559
   9        3PZ        -0.02316   0.03349  -0.03696   0.34700
  10        4S          0.42291  -0.16001   0.12006  -0.13076   0.72161
  11        4PX        -0.09826   0.25850  -0.13540   0.14648  -0.30250
  12        4PY         0.04648  -0.09021   0.20411  -0.10379   0.15771
  13        4PZ        -0.05751   0.11398  -0.10999   0.23195  -0.19403
  14 2   H  1S          0.08220  -0.05822  -0.20892   0.01710   0.08464
  15        2S          0.01922  -0.06767  -0.29919   0.03146  -0.02145
  16 3   H  1S          0.09219  -0.00387   0.07641   0.19842   0.09317
  17        2S          0.03645  -0.00655   0.10084   0.25969   0.00516
  18 4   H  1S          0.08872   0.20335   0.00071  -0.06912   0.04434
  19        2S          0.05162   0.24990   0.03001  -0.12106  -0.01871
  20 5   Al 1S         -0.00727   0.00232   0.00201  -0.00241   0.00235
  21        2S          0.02253  -0.00525  -0.01032   0.01085   0.01818
  22        2PX         0.00664   0.01802  -0.01493   0.02012  -0.03716
  23        2PY         0.00518  -0.00507   0.00935  -0.00736  -0.00358
  24        2PZ         0.01376  -0.01190  -0.00280  -0.00822   0.03170
  25        3S         -0.01715  -0.00625   0.01470  -0.01577  -0.03933
  26        3PX         0.01360  -0.04296   0.03217  -0.03508  -0.00250
  27        3PY        -0.00057   0.00676  -0.02288   0.02016  -0.02515
  28        3PZ        -0.02089   0.02195   0.01054   0.00854  -0.07083
  29        4S         -0.04152   0.04306   0.00258  -0.01041  -0.08138
  30        4PX        -0.01854   0.01200   0.01262  -0.01117  -0.03711
  31        4PY        -0.00806   0.00833  -0.02329   0.01526  -0.03022
  32        4PZ        -0.01486   0.02378  -0.00255   0.01130  -0.04328
  33 6   H  1S         -0.02514   0.00999   0.01011   0.00037  -0.07858
  34        2S         -0.07550   0.06039   0.02311   0.01718  -0.20748
  35 7   H  1S         -0.01228   0.01065  -0.01901   0.00938  -0.04472
  36        2S         -0.02965   0.03859  -0.05572   0.04142  -0.10416
  37 8   H  1S         -0.00163   0.00400   0.00024   0.00209   0.03043
  38        2S         -0.00238   0.00401   0.00401   0.00991   0.05610
                          11        12        13        14        15
  11        4PX         0.32033
  12        4PY        -0.16994   0.16855
  13        4PZ         0.19951  -0.14207   0.22067
  14 2   H  1S         -0.00063  -0.11039   0.03704   0.18250
  15        2S          0.04100  -0.16670   0.06695   0.22353   0.30414
  16 3   H  1S          0.01666   0.00771   0.10556  -0.02035  -0.05582
  17        2S          0.04334   0.00460   0.13933  -0.05272  -0.07942
  18 4   H  1S          0.11389  -0.01703  -0.00070  -0.02552  -0.05743
  19        2S          0.12363   0.00192  -0.02038  -0.06704  -0.10654
  20 5   Al 1S         -0.01344  -0.00104   0.00757  -0.00230  -0.01065
  21        2S          0.02783   0.00102  -0.02275   0.01093   0.03830
  22        2PX         0.08056  -0.01417  -0.00663   0.00431   0.02829
  23        2PY        -0.01153   0.02097  -0.01475  -0.00406  -0.00731
  24        2PZ        -0.01569  -0.00122  -0.00652   0.00750   0.01190
  25        3S         -0.01323   0.00794   0.00923  -0.01308  -0.02930
  26        3PX        -0.03856   0.03474  -0.03829  -0.00995  -0.01818
  27        3PY         0.04707  -0.03032   0.01885   0.00695   0.02144
  28        3PZ         0.02038   0.00087   0.01785  -0.01688  -0.02179
  29        4S          0.03969  -0.01147   0.02020  -0.02596  -0.02887
  30        4PX         0.01155   0.00488  -0.00404  -0.01873  -0.01823
  31        4PY         0.02912  -0.02345   0.01881   0.00988   0.01933
  32        4PZ         0.02695  -0.00925   0.01689  -0.00785  -0.00734
  33 6   H  1S         -0.00091   0.00694   0.01954  -0.01268  -0.02611
  34        2S          0.04136   0.00355   0.05680  -0.04441  -0.06655
  35 7   H  1S          0.03882  -0.02736   0.02366   0.00218   0.00834
  36        2S          0.10108  -0.07110   0.06545   0.01243   0.03182
  37 8   H  1S         -0.01313   0.00054   0.00560   0.00089  -0.00518
  38        2S         -0.02284   0.00247   0.00844  -0.00013  -0.00879
                          16        17        18        19        20
  16 3   H  1S          0.18271
  17        2S          0.20871   0.26192
  18 4   H  1S         -0.02718  -0.06154   0.18510
  19        2S         -0.06769  -0.10579   0.22002   0.29264
  20 5   Al 1S         -0.00163  -0.01110   0.00079   0.01352   2.12104
  21        2S          0.00919   0.03695  -0.00719  -0.04869  -0.51308
  22        2PX         0.00744   0.03670   0.00471  -0.03973   0.00106
  23        2PY        -0.00152   0.00013   0.00135   0.00724  -0.00021
  24        2PZ         0.00173   0.00398  -0.00969  -0.02164  -0.00037
  25        3S         -0.01527  -0.02703   0.00958   0.04550  -0.03811
  26        3PX        -0.01656  -0.02217  -0.00291   0.01610  -0.00436
  27        3PY         0.00481   0.00848  -0.00119  -0.02253   0.00043
  28        3PZ        -0.00390  -0.00256   0.01751   0.04722   0.00075
  29        4S         -0.02185  -0.02394   0.02624   0.05275   0.04548
  30        4PX        -0.01217  -0.00983   0.00841   0.01913  -0.00043
  31        4PY        -0.00078   0.00111   0.00013  -0.00507  -0.00064
  32        4PZ        -0.00105   0.00106   0.01305   0.02363   0.00097
  33 6   H  1S         -0.01191  -0.01856   0.01702   0.06645   0.01866
  34        2S         -0.02160  -0.02532   0.04918   0.15032   0.02090
  35 7   H  1S         -0.00585  -0.00902   0.00671   0.00676   0.01904
  36        2S         -0.00325  -0.00370   0.01486   0.00819   0.02155
  37 8   H  1S          0.00640   0.00485  -0.00465  -0.00884   0.01805
  38        2S          0.01607   0.01738  -0.01338  -0.02640   0.02035
                          21        22        23        24        25
  21        2S          2.17743
  22        2PX        -0.00378   1.94167
  23        2PY         0.00110   0.00566   1.96164
  24        2PZ         0.00180   0.02072  -0.00689   1.93768
  25        3S          0.00302   0.00600  -0.00363  -0.00328   0.27626
  26        3PX         0.01109   0.12849  -0.01058  -0.03754  -0.00153
  27        3PY        -0.00382  -0.01009   0.08607   0.01078   0.00477
  28        3PZ        -0.00364  -0.03738   0.01108   0.13083   0.00408
  29        4S         -0.16819   0.01647  -0.00535   0.00589   0.13293
  30        4PX        -0.00136  -0.05840  -0.00169  -0.00219  -0.00748
  31        4PY        -0.00091   0.00129  -0.07737  -0.00200   0.00361
  32        4PZ        -0.00457  -0.00675  -0.00260  -0.06980   0.00478
  33 6   H  1S         -0.07944  -0.04600   0.04356  -0.05326   0.10093
  34        2S         -0.10957  -0.07469   0.08651  -0.11266   0.15957
  35 7   H  1S         -0.08163  -0.01528  -0.08099   0.00768   0.10301
  36        2S         -0.10606  -0.02353  -0.14445   0.01127   0.15012
  37 8   H  1S         -0.07760   0.06254   0.03593   0.04039   0.09992
  38        2S         -0.10391   0.11513   0.06472   0.06970   0.14468
                          26        27        28        29        30
  26        3PX         0.12840
  27        3PY         0.02670   0.18121
  28        3PZ         0.07296  -0.02076   0.08837
  29        4S         -0.01427   0.02262  -0.00398   0.09149
  30        4PX         0.02021   0.01836   0.01798   0.00083   0.01152
  31        4PY         0.01483   0.05062   0.00074   0.00841   0.00695
  32        4PZ         0.02296   0.00289   0.01955   0.00428   0.00704
  33 6   H  1S          0.07021  -0.07008   0.08662   0.03983   0.00992
  34        2S          0.14438  -0.13715   0.18247   0.06311   0.02577
  35 7   H  1S          0.02341   0.13605  -0.01048   0.07265   0.01322
  36        2S          0.03634   0.24532  -0.01834   0.11342   0.02423
  37 8   H  1S         -0.10444  -0.06200  -0.06578   0.05741  -0.03094
  38        2S         -0.18458  -0.11016  -0.11788   0.08339  -0.05397
                          31        32        33        34        35
  31        4PY         0.02148
  32        4PZ         0.00435   0.01161
  33 6   H  1S         -0.01396   0.02733   0.15559
  34        2S         -0.02563   0.05999   0.30167   0.60030
  35 7   H  1S          0.04723   0.00618  -0.01331  -0.04015   0.15226
  36        2S          0.08655   0.01253  -0.03705  -0.08922   0.26072
  37 8   H  1S         -0.02721  -0.02379  -0.01553  -0.05543  -0.01649
  38        2S         -0.04875  -0.04292  -0.04148  -0.12022  -0.04268
                          36        37        38
  36        2S          0.45390
  37 8   H  1S         -0.04208   0.15199
  38        2S         -0.09410   0.25692   0.43793
    Full Mulliken population analysis:
                           1         2         3         4         5
   1 1   P  1S          2.13238
   2        2S         -0.13639   2.26229
   3        2PX         0.00000   0.00000   1.97432
   4        2PY         0.00000   0.00000   0.00000   1.97679
   5        2PZ         0.00000   0.00000   0.00000  -0.00000   1.97742
   6        3S         -0.00181  -0.01422   0.00000   0.00000   0.00000
   7        3PX         0.00000   0.00000   0.00483  -0.00000  -0.00000
   8        3PY         0.00000   0.00000  -0.00000   0.00173   0.00000
   9        3PZ         0.00000   0.00000  -0.00000   0.00000   0.00160
  10        4S          0.00478  -0.14586   0.00000   0.00000   0.00000
  11        4PX         0.00000   0.00000  -0.01711  -0.00000  -0.00000
  12        4PY         0.00000   0.00000  -0.00000  -0.01225   0.00000
  13        4PZ         0.00000   0.00000  -0.00000   0.00000  -0.01375
  14 2   H  1S          0.00001  -0.00095  -0.00018  -0.00167  -0.00000
  15        2S         -0.00014   0.00188  -0.00036  -0.00512  -0.00001
  16 3   H  1S          0.00001  -0.00102  -0.00000  -0.00026  -0.00157
  17        2S         -0.00012   0.00076   0.00001  -0.00070  -0.00407
  18 4   H  1S          0.00001  -0.00091  -0.00169   0.00000  -0.00020
  19        2S          0.00001  -0.00234  -0.00339   0.00000  -0.00066
  20 5   Al 1S          0.00000   0.00000   0.00000   0.00000   0.00000
  21        2S          0.00000  -0.00000   0.00000   0.00000  -0.00000
  22        2PX        -0.00000   0.00000   0.00000   0.00000  -0.00000
  23        2PY        -0.00000   0.00000   0.00000  -0.00000  -0.00000
  24        2PZ        -0.00000   0.00000   0.00000  -0.00000   0.00000
  25        3S         -0.00000   0.00003  -0.00000  -0.00000   0.00000
  26        3PX        -0.00000   0.00001  -0.00009  -0.00000   0.00001
  27        3PY         0.00000  -0.00000  -0.00000   0.00001   0.00000
  28        3PZ         0.00000  -0.00001  -0.00000   0.00000  -0.00001
  29        4S         -0.00006   0.00184   0.00033  -0.00000  -0.00000
  30        4PX        -0.00011   0.00310   0.00030  -0.00000   0.00000
  31        4PY         0.00000  -0.00000  -0.00000   0.00011   0.00000
  32        4PZ         0.00000  -0.00004  -0.00001  -0.00000   0.00001
  33 6   H  1S         -0.00000   0.00000   0.00000   0.00000  -0.00000
  34        2S         -0.00002   0.00101   0.00023   0.00004  -0.00001
  35 7   H  1S         -0.00000   0.00000   0.00000   0.00000   0.00000
  36        2S         -0.00000   0.00007   0.00004   0.00003   0.00000
  37 8   H  1S          0.00000  -0.00000   0.00000   0.00000   0.00000
  38        2S         -0.00000  -0.00000   0.00000  -0.00000  -0.00000
                           6         7         8         9        10
   6        3S          0.37193
   7        3PX         0.00000   0.33960
   8        3PY         0.00000   0.00000   0.34559
   9        3PZ         0.00000   0.00000  -0.00000   0.34700
  10        4S          0.35270   0.00000   0.00000   0.00000   0.72161
  11        4PX         0.00000   0.16715   0.00000   0.00000   0.00000
  12        4PY         0.00000   0.00000   0.13198  -0.00000   0.00000
  13        4PZ         0.00000   0.00000  -0.00000   0.14998   0.00000
  14 2   H  1S          0.01446   0.00634   0.06136   0.00014   0.02199
  15        2S          0.00830   0.00919   0.10949   0.00031  -0.01290
  16 3   H  1S          0.01622   0.00004   0.00940   0.05714   0.02421
  17        2S          0.01574   0.00008   0.01546   0.09319   0.00311
  18 4   H  1S          0.01561   0.06020  -0.00000   0.00709   0.01152
  19        2S          0.02230   0.09219  -0.00004   0.01548  -0.01126
  20 5   Al 1S         -0.00000  -0.00000   0.00000  -0.00000   0.00000
  21        2S          0.00000   0.00000  -0.00000   0.00000   0.00030
  22        2PX         0.00000  -0.00002  -0.00000   0.00000  -0.00039
  23        2PY        -0.00000  -0.00000   0.00000   0.00000   0.00000
  24        2PZ        -0.00000  -0.00000   0.00000  -0.00000  -0.00001
  25        3S         -0.00064   0.00041   0.00000  -0.00003  -0.00554
  26        3PX         0.00126   0.00615   0.00001  -0.00019  -0.00054
  27        3PY         0.00000   0.00000  -0.00054  -0.00000   0.00001
  28        3PZ         0.00006   0.00012  -0.00000   0.00020   0.00050
  29        4S         -0.00621  -0.00500   0.00000  -0.00004  -0.02478
  30        4PX        -0.00611  -0.00205   0.00001  -0.00009  -0.01930
  31        4PY         0.00001   0.00001  -0.00208  -0.00000   0.00004
  32        4PZ         0.00016   0.00020   0.00000   0.00101   0.00073
  33 6   H  1S         -0.00018  -0.00016  -0.00007   0.00000  -0.00559
  34        2S         -0.00761  -0.00703  -0.00123   0.00113  -0.05142
  35 7   H  1S         -0.00001  -0.00002  -0.00002  -0.00000  -0.00108
  36        2S         -0.00088  -0.00165  -0.00150  -0.00010  -0.01233
  37 8   H  1S         -0.00000  -0.00000  -0.00000  -0.00000   0.00003
  38        2S         -0.00000  -0.00001  -0.00000  -0.00000   0.00078
                          11        12        13        14        15
  11        4PX         0.32033
  12        4PY         0.00000   0.16855
  13        4PZ         0.00000  -0.00000   0.22067
  14 2   H  1S          0.00009   0.04207   0.00038   0.18250
  15        2S         -0.00918   0.10060   0.00109   0.14438   0.30414
  16 3   H  1S         -0.00022   0.00123   0.03944  -0.00001  -0.00262
  17        2S         -0.00091   0.00116   0.08246  -0.00248  -0.01620
  18 4   H  1S          0.04375   0.00003   0.00009  -0.00002  -0.00270
  19        2S          0.07521  -0.00000   0.00430  -0.00315  -0.02173
  20 5   Al 1S          0.00008  -0.00000   0.00000  -0.00000  -0.00001
  21        2S         -0.00153   0.00000  -0.00004   0.00000   0.00032
  22        2PX        -0.00240  -0.00000  -0.00001   0.00000   0.00018
  23        2PY        -0.00000   0.00012   0.00000   0.00000   0.00003
  24        2PZ        -0.00002   0.00000  -0.00004  -0.00000  -0.00000
  25        3S          0.00406   0.00001   0.00009  -0.00021  -0.00334
  26        3PX         0.01415   0.00004  -0.00060  -0.00041  -0.00325
  27        3PY         0.00006  -0.00365  -0.00000  -0.00016  -0.00217
  28        3PZ         0.00032  -0.00000   0.00214   0.00002   0.00009
  29        4S         -0.01489  -0.00001   0.00025  -0.00221  -0.00764
  30        4PX        -0.00407   0.00001  -0.00008  -0.00319  -0.00769
  31        4PY         0.00005  -0.00678  -0.00000  -0.00095  -0.00461
  32        4PZ         0.00056   0.00000   0.00487   0.00003   0.00007
  33 6   H  1S          0.00014  -0.00048   0.00168  -0.00011  -0.00319
  34        2S         -0.01498  -0.00059   0.01166  -0.00542  -0.02425
  35 7   H  1S         -0.00260  -0.00115  -0.00009   0.00000   0.00001
  36        2S         -0.02271  -0.01005  -0.00082   0.00002   0.00076
  37 8   H  1S          0.00006  -0.00000  -0.00000   0.00000  -0.00000
  38        2S          0.00098  -0.00002  -0.00006  -0.00000  -0.00014
                          16        17        18        19        20
  16 3   H  1S          0.18271
  17        2S          0.13481   0.26192
  18 4   H  1S         -0.00002  -0.00289   0.18510
  19        2S         -0.00318  -0.02158   0.14211   0.29264
  20 5   Al 1S         -0.00000  -0.00000   0.00000   0.00000   2.12104
  21        2S          0.00000   0.00009  -0.00000  -0.00000  -0.12366
  22        2PX         0.00000   0.00008   0.00000  -0.00000   0.00000
  23        2PY        -0.00000   0.00000  -0.00000  -0.00000   0.00000
  24        2PZ         0.00000   0.00000   0.00000   0.00000   0.00000
  25        3S         -0.00007  -0.00153   0.00000   0.00020  -0.00046
  26        3PX        -0.00024  -0.00231  -0.00000   0.00019   0.00000
  27        3PY         0.00001   0.00017   0.00000   0.00000   0.00000
  28        3PZ        -0.00002  -0.00011  -0.00000  -0.00007   0.00000
  29        4S         -0.00120  -0.00446   0.00029   0.00277   0.00115
  30        4PX        -0.00158  -0.00347   0.00033   0.00284   0.00000
  31        4PY        -0.00002   0.00008  -0.00000   0.00000   0.00000
  32        4PZ        -0.00006   0.00016  -0.00007  -0.00047   0.00000
  33 6   H  1S         -0.00000  -0.00074   0.00000   0.00005   0.00000
  34        2S         -0.00086  -0.00468   0.00004   0.00241   0.00024
  35 7   H  1S         -0.00000  -0.00006   0.00000   0.00000   0.00000
  36        2S         -0.00002  -0.00024   0.00000   0.00005   0.00025
  37 8   H  1S          0.00000   0.00000  -0.00000  -0.00000   0.00000
  38        2S          0.00000   0.00003  -0.00000  -0.00000   0.00024
                          21        22        23        24        25
  21        2S          2.17743
  22        2PX         0.00000   1.94167
  23        2PY         0.00000  -0.00000   1.96164
  24        2PZ         0.00000   0.00000  -0.00000   1.93768
  25        3S          0.00077   0.00000   0.00000   0.00000   0.27626
  26        3PX         0.00000   0.03105   0.00000  -0.00000   0.00000
  27        3PY         0.00000   0.00000   0.02080   0.00000   0.00000
  28        3PZ         0.00000  -0.00000   0.00000   0.03162   0.00000
  29        4S         -0.03671   0.00000   0.00000   0.00000   0.10976
  30        4PX         0.00000  -0.00343   0.00000  -0.00000   0.00000
  31        4PY         0.00000  -0.00000  -0.00455  -0.00000   0.00000
  32        4PZ         0.00000  -0.00000  -0.00000  -0.00410   0.00000
  33 6   H  1S         -0.00051  -0.00028  -0.00026  -0.00036   0.01915
  34        2S         -0.01153  -0.00238  -0.00268  -0.00393   0.07396
  35 7   H  1S         -0.00052  -0.00004  -0.00086  -0.00001   0.01954
  36        2S         -0.01116  -0.00028  -0.00790  -0.00009   0.06958
  37 8   H  1S         -0.00050  -0.00053  -0.00016  -0.00021   0.01896
  38        2S         -0.01094  -0.00504  -0.00153  -0.00187   0.06706
                          26        27        28        29        30
  26        3PX         0.12840
  27        3PY        -0.00000   0.18121
  28        3PZ         0.00000  -0.00000   0.08837
  29        4S          0.00000   0.00000   0.00000   0.09149
  30        4PX         0.01342  -0.00000   0.00000   0.00000   0.01152
  31        4PY        -0.00000   0.03362   0.00000   0.00000  -0.00000
  32        4PZ         0.00000   0.00000   0.01299   0.00000   0.00000
  33 6   H  1S          0.01375   0.01333   0.01854   0.00841   0.00163
  34        2S          0.04408   0.04066   0.06087   0.03445   0.00872
  35 7   H  1S          0.00171   0.04565   0.00052   0.01533   0.00081
  36        2S          0.00413   0.12831   0.00142   0.06191   0.00305
  37 8   H  1S          0.02806   0.00901   0.01082   0.01212   0.00697
  38        2S          0.07730   0.02495   0.03022   0.04552   0.02505
                          31        32        33        34        35
  31        4PY         0.02148
  32        4PZ         0.00000   0.01161
  33 6   H  1S          0.00223   0.00490   0.15559
  34        2S          0.00842   0.02218   0.19485   0.60030
  35 7   H  1S          0.01329  -0.00026  -0.00000  -0.00053   0.15226
  36        2S          0.05016  -0.00107  -0.00049  -0.00844   0.16840
  37 8   H  1S          0.00332   0.00328  -0.00000  -0.00074  -0.00000
  38        2S          0.01224   0.01219  -0.00055  -0.01138  -0.00057
                          36        37        38
  36        2S          0.45390
  37 8   H  1S         -0.00056   0.15199
  38        2S         -0.00891   0.16595   0.43793
     Gross orbital populations:
                           1
   1 1   P  1S          1.99855
   2        2S          1.96924
   3        2PX         1.95723
   4        2PY         1.95870
   5        2PZ         1.95876
   6        3S          0.78108
   7        3PX         0.67058
   8        3PY         0.66954
   9        3PZ         0.67382
  10        4S          0.85130
  11        4PX         0.53637
  12        4PY         0.41080
  13        4PZ         0.50361
  14 2   H  1S          0.45266
  15        2S          0.55359
  16 3   H  1S          0.45224
  17        2S          0.54274
  18 4   H  1S          0.45768
  19        2S          0.58487
  20 5   Al 1S          1.99888
  21        2S          1.98181
  22        2PX         1.95818
  23        2PY         1.96464
  24        2PZ         1.95866
  25        3S          0.64801
  26        3PX         0.35609
  27        3PY         0.49131
  28        3PZ         0.25857
  29        4S          0.28240
  30        4PX         0.02658
  31        4PY         0.12605
  32        4PZ         0.06888
  33 6   H  1S          0.42126
  34        2S          0.94551
  35 7   H  1S          0.40970
  36        2S          0.85285
  37 8   H  1S          0.40786
  38        2S          0.85941
          Condensed to atoms (all electrons):
               1          2          3          4          5          6
     1  P   14.105184   0.347187   0.350790   0.327300  -0.064281  -0.073503
     2  H    0.347187   0.775387  -0.021314  -0.027598  -0.035093  -0.032972
     3  H    0.350790  -0.021314   0.714240  -0.027668  -0.014485  -0.006287
     4  H    0.327300  -0.027598  -0.027668   0.761957   0.006028   0.002489
     5  Al  -0.064281  -0.035093  -0.014485   0.006028  11.114343   0.353582
     6  H   -0.073503  -0.032972  -0.006287   0.002489   0.353582   1.145593
     7  H   -0.054861   0.000791  -0.000328   0.000049   0.393456  -0.009470
     8  H    0.001758  -0.000139   0.000026  -0.000003   0.366511  -0.012667
               7          8
     1  P   -0.054861   0.001758
     2  H    0.000791  -0.000139
     3  H   -0.000328   0.000026
     4  H    0.000049  -0.000003
     5  Al   0.393456   0.366511
     6  H   -0.009470  -0.012667
     7  H    0.942951  -0.010033
     8  H   -0.010033   0.921818
 Mulliken charges:
               1
     1  P    0.060426
     2  H   -0.006249
     3  H    0.005026
     4  H   -0.042553
     5  Al   0.879939
     6  H   -0.366765
     7  H   -0.262554
     8  H   -0.267270
 Sum of Mulliken charges =  -0.00000
 Mulliken charges with hydrogens summed into heavy atoms:
               1
     1  P    0.016650
     5  Al  -0.016650
 Electronic spatial extent (au):  <R**2>=            347.2998
 Charge=             -0.0000 electrons
 Dipole moment (field-independent basis, Debye):
    X=              1.8019    Y=             -0.5926    Z=              0.6558  Tot=              2.0069
 Quadrupole moment (field-independent basis, Debye-Ang):
   XX=            -30.9488   YY=            -34.3017   ZZ=            -31.1875
   XY=             -0.6908   XZ=             -2.6181   YZ=              2.6485
 Traceless Quadrupole moment (field-independent basis, Debye-Ang):
   XX=              1.1972   YY=             -2.1557   ZZ=              0.9585
   XY=             -0.6908   XZ=             -2.6181   YZ=              2.6485
 Octapole moment (field-independent basis, Debye-Ang**2):
  XXX=             18.7507  YYY=             -4.4805  ZZZ=             -0.3888  XYY=              7.7859
  XXY=              6.0507  XXZ=              8.8916  XZZ=              2.0947  YZZ=              1.5335
  YYZ=              0.0158  XYZ=              1.0362
 Hexadecapole moment (field-independent basis, Debye-Ang**3):
 XXXX=           -446.3301 YYYY=            -91.8021 ZZZZ=            -65.8321 XXXY=            -13.0222
 XXXZ=            -32.8553 YYYX=              5.0942 YYYZ=              4.6787 ZZZX=             -4.5157
 ZZZY=              4.8924 XXYY=            -90.8793 XXZZ=            -80.9829 YYZZ=            -26.1352
 XXYZ=              0.1523 YYXZ=             -2.1095 ZZXY=             -3.0171
 N-N= 8.667776966763D+01 E-N=-1.564023172666D+03  KE= 5.829891735633D+02
 Orbital energies and kinetic energies (alpha):
                                 1                 2
   1         O               -79.385863        105.407177
   2         O               -58.036175         78.663592
   3         O                -7.465937         16.218832
   4         O                -5.352105         14.537699
   5         O                -5.351471         14.550084
   6         O                -5.347491         14.578032
   7         O                -4.849422         11.071471
   8         O                -3.152860          9.710547
   9         O                -3.152163          9.717036
  10         O                -3.151360          9.719521
  11         O                -0.912020          1.500525
  12         O                -0.629506          0.951974
  13         O                -0.583452          1.092274
  14         O                -0.537265          0.943195
  15         O                -0.429673          0.785852
  16         O                -0.408290          0.824317
  17         O                -0.349968          1.222458
  18         V                 0.065754          0.517517
  19         V                 0.152198          0.579380
  20         V                 0.175224          0.690079
  21         V                 0.192497          0.418348
  22         V                 0.208698          0.569190
  23         V                 0.247980          1.012034
  24         V                 0.265305          0.923961
  25         V                 0.339616          1.208443
  26         V                 0.394544          1.507837
  27         V                 0.416408          1.548879
  28         V                 0.439692          1.728432
  29         V                 0.574711          1.938506
  30         V                 0.597081          2.427424
  31         V                 0.637002          2.457009
  32         V                 0.806359          2.389872
  33         V                 1.233833          2.556152
  34         V                 1.284075          2.628524
  35         V                 1.316702          2.752904
  36         V                 1.382198          2.350329
  37         V                 1.411633          2.457285
  38         V                 1.451787          2.479174
 Total kinetic energy from orbitals= 5.829891735633D+02
 Calling FoFJK, ICntrl=      2127 FMM=F ISym2X=0 I1Cent= 0 IOpClX= 0 NMat=1 NMatS=1 NMatT=0.
 ***** Axes restored to original set *****
 -------------------------------------------------------------------
 Center     Atomic                   Forces (Hartrees/Bohr)
 Number     Number              X              Y              Z
 -------------------------------------------------------------------
      1       15          -0.042193019    0.002355022   -0.028588014
      2        1           0.035764807   -0.009918036   -0.016040838
      3        1           0.020977174    0.009766151    0.014818132
      4        1           0.016122250    0.014652378   -0.020180028
      5       13          -0.017266440    0.002880848    0.005723983
      6        1           0.006134608   -0.013414798    0.030738396
      7        1          -0.013176593    0.008617393    0.016132012
      8        1          -0.006362787   -0.014938960   -0.002603644
 -------------------------------------------------------------------
 Cartesian Forces:  Max     0.042193019 RMS     0.018433338

 GradGradGradGradGradGradGradGradGradGradGradGradGradGradGradGradGradGrad
 Berny optimization.
 FormGI is forming the generalized inverse of G from B-inverse, IUseBI=4.
 Internal  Forces:  Max     0.057344218 RMS     0.024961256
 Search for a local minimum.
 Step number   1 out of a maximum of   38
 All quantities printed in internal units (Hartrees-Bohrs-Radians)
 Mixed Optimization -- RFO/linear search
 Second derivative matrix not updated -- first step.
 ITU=  0
     Eigenvalues ---    0.00230   0.00614   0.02297   0.03200   0.05387
     Eigenvalues ---    0.05981   0.14842   0.14842   0.14842   0.16000
     Eigenvalues ---    0.16000   0.16000   0.16000   0.16000   0.16000
     Eigenvalues ---    0.25638   0.25638   0.25638
 RFO step:  Lambda=-8.96533436D-02 EMin= 2.30000000D-03
 Linear search not attempted -- first point.
 Maximum step size (   0.300) exceeded in Quadratic search.
    -- Step size scaled by   0.507
 Iteration  1 RMS(Cart)=  0.14141282 RMS(Int)=  0.00957574
 Iteration  2 RMS(Cart)=  0.00851416 RMS(Int)=  0.00490538
 Iteration  3 RMS(Cart)=  0.00012067 RMS(Int)=  0.00490500
 Iteration  4 RMS(Cart)=  0.00000297 RMS(Int)=  0.00490500
 Iteration  5 RMS(Cart)=  0.00000008 RMS(Int)=  0.00490500
 Variable       Old X    -DE/DX   Delta X   Delta X   Delta X     New X
                                 (Linear)    (Quad)   (Total)
    R1        2.55113   0.02127   0.00000   0.03116   0.03116   2.58229
    R2        2.55113   0.02370   0.00000   0.03471   0.03471   2.58584
    R3        2.55113   0.02876   0.00000   0.04213   0.04213   2.59326
    R4        5.14006   0.05734   0.00000   0.19449   0.19449   5.33455
    R5        2.92908   0.00613   0.00000   0.01306   0.01306   2.94214
    R6        2.92908   0.01405   0.00000   0.02992   0.02992   2.95899
    R7        2.92908   0.01612   0.00000   0.03432   0.03432   2.96340
    A1        1.91063  -0.00337   0.00000  -0.02826  -0.03257   1.87807
    A2        1.91063  -0.04053   0.00000  -0.08083  -0.08190   1.82873
    A3        1.21753   0.04738   0.00000   0.10193   0.10143   1.31896
    A4        1.91063  -0.01569   0.00000  -0.03463  -0.03516   1.87548
    A5        1.50745   0.00920   0.00000   0.02428   0.02493   1.53238
    A6        2.84022   0.00795   0.00000   0.01346   0.01299   2.85321
    A7        0.99361   0.05670   0.00000   0.14000   0.14547   1.13909
    A8        1.35715   0.01843   0.00000   0.05787   0.06415   1.42130
    A9        2.43056  -0.00347   0.00000  -0.01019  -0.01210   2.41846
   A10        2.09440   0.03024   0.00000   0.04015   0.02027   2.11466
   A11        2.09440  -0.02445   0.00000  -0.03370  -0.03931   2.05509
   A12        2.09440  -0.00578   0.00000  -0.00645  -0.01328   2.08112
    D1        0.84459   0.00988   0.00000   0.05167   0.04886   0.89345
    D2       -3.01700  -0.02514   0.00000  -0.10541  -0.10021  -3.11721
    D3       -0.88514  -0.01330   0.00000  -0.04911  -0.04767  -0.93281
    D4       -1.11533   0.02787   0.00000   0.11513   0.10969  -1.00564
    D5        1.30627  -0.00715   0.00000  -0.04194  -0.03939   1.26688
    D6       -2.84506   0.00469   0.00000   0.01435   0.01316  -2.83190
    D7        2.42602   0.02226   0.00000   0.10104   0.09704   2.52305
    D8       -1.43557  -0.01276   0.00000  -0.05603  -0.05204  -1.48761
    D9        0.69629  -0.00092   0.00000   0.00026   0.00051   0.69679
         Item               Value     Threshold  Converged?
 Maximum Force            0.057344     0.000450     NO 
 RMS     Force            0.024961     0.000300     NO 
 Maximum Displacement     0.462804     0.001800     NO 
 RMS     Displacement     0.145351     0.001200     NO 
 Predicted change in Energy=-3.934521D-02
 GradGradGradGradGradGradGradGradGradGradGradGradGradGradGradGradGradGrad

                          Input orientation:                          
 ---------------------------------------------------------------------
 Center     Atomic      Atomic             Coordinates (Angstroms)
 Number     Number       Type             X           Y           Z
 ---------------------------------------------------------------------
      1         15           0       -1.236061    1.294707   -0.080124
      2          1           0       -0.655551    0.058674   -0.130400
      3          1           0       -0.736036    1.942493    1.016590
      4          1           0       -0.767397    1.947066   -1.192766
      5         13           0       -2.776536   -0.278314    1.686629
      6          1           0       -1.240414   -0.336314    1.933484
      7          1           0       -3.568465    1.065865    1.820272
      8          1           0       -3.565164   -1.633655    1.670838
 ---------------------------------------------------------------------
                    Distance matrix (angstroms):
                    1          2          3          4          5
     1  P    0.000000
     2  H    1.366490   0.000000
     3  H    1.368369   2.206997   0.000000
     4  H    1.372294   2.169598   2.209583   0.000000
     5  Al   2.822920   2.813136   3.089430   4.156906   0.000000
     6  H    2.591305   2.181214   2.507599   3.900129   1.556912
     7  H    3.017281   3.647550   3.071976   4.207243   1.565832
     8  H    4.131088   3.817627   4.606608   5.371153   1.568162
                    6          7          8
     6  H    0.000000
     7  H    2.720064   0.000000
     8  H    2.675171   2.703655   0.000000
 Stoichiometry    AlH6P
 Framework group  C1[X(AlH6P)]
 Deg. of freedom    18
 Full point group                 C1      NOp   1
 Largest Abelian subgroup         C1      NOp   1
 Largest concise Abelian subgroup C1      NOp   1
                         Standard orientation:                         
 ---------------------------------------------------------------------
 Center     Atomic      Atomic             Coordinates (Angstroms)
 Number     Number       Type             X           Y           Z
 ---------------------------------------------------------------------
      1         15           0        1.308366    0.025356   -0.070392
      2          1           0        0.972244   -1.297637   -0.007093
      3          1           0        1.289909    0.518589    1.205858
      4          1           0        2.612731    0.035125   -0.496688
      5         13           0       -1.513477    0.019449    0.007330
      6          1           0       -0.829207   -0.819705    1.126067
      7          1           0       -1.286356    1.565009   -0.099861
      8          1           0       -2.709615   -0.634556   -0.767693
 ---------------------------------------------------------------------
 Rotational constants (GHZ):          54.5851235           3.6667061           3.6186853
 Standard basis: 3-21G (6D, 7F)
 There are    38 symmetry adapted cartesian basis functions of A   symmetry.
 There are    38 symmetry adapted basis functions of A   symmetry.
    38 basis functions,    72 primitive gaussians,    38 cartesian basis functions
    17 alpha electrons       17 beta electrons
       nuclear repulsion energy        83.7849476294 Hartrees.
 NAtoms=    8 NActive=    8 NUniq=    8 SFac= 1.00D+00 NAtFMM=   60 NAOKFM=F Big=F
 Integral buffers will be    131072 words long.
 Raffenetti 1 integral format.
 Two-electron integral symmetry is turned on.
 One-electron integrals computed using PRISM.
 NBasis=    38 RedAO= T EigKep=  2.83D-02  NBF=    38
 NBsUse=    38 1.00D-06 EigRej= -1.00D+00 NBFU=    38
 Initial guess from the checkpoint file:  "PH3_AlH3_adduct_opt.chk"
 B after Tr=     0.000000    0.000000    0.000000
         Rot=    0.999979   -0.005324    0.002835   -0.002502 Ang=  -0.75 deg.
 ExpMin= 6.39D-02 ExpMax= 1.05D+03 ExpMxC= 1.05D+03 IAcc=3 IRadAn=         5 AccDes= 0.00D+00
 Harris functional with IExCor=  205 and IRadAn=       5 diagonalized for initial guess.
 HarFok:  IExCor=  205 AccDes= 0.00D+00 IRadAn=         5 IDoV= 1 UseB2=F ITyADJ=14
 ICtDFT=  3500011 ScaDFX=  1.000000  1.000000  1.000000  1.000000
 FoFCou: FMM=F IPFlag=           0 FMFlag=      100000 FMFlg1=           0
         NFxFlg=           0 DoJE=T BraDBF=F KetDBF=T FulRan=T
         wScrn=  0.000000 ICntrl=       500 IOpCl=  0 I1Cent=   200000004 NGrid=           0
         NMat0=    1 NMatS0=      1 NMatT0=    0 NMatD0=    1 NMtDS0=    0 NMtDT0=    0
 Petite list used in FoFCou.
 Keep R1 ints in memory in canonical form, NReq=1087796.
 Requested convergence on RMS density matrix=1.00D-08 within 128 cycles.
 Requested convergence on MAX density matrix=1.00D-06.
 Requested convergence on             energy=1.00D-06.
 No special actions if energy rises.
 SCF Done:  E(RHF) =  -582.966880245     A.U. after   10 cycles
            NFock= 10  Conv=0.24D-08     -V/T= 2.0003
 Calling FoFJK, ICntrl=      2127 FMM=F ISym2X=0 I1Cent= 0 IOpClX= 0 NMat=1 NMatS=1 NMatT=0.
 ***** Axes restored to original set *****
 -------------------------------------------------------------------
 Center     Atomic                   Forces (Hartrees/Bohr)
 Number     Number              X              Y              Z
 -------------------------------------------------------------------
      1       15          -0.036059372   -0.005063895   -0.014363884
      2        1           0.027116809   -0.007516702   -0.004347723
      3        1           0.016810042    0.006089427    0.008217935
      4        1           0.009412227    0.009651031   -0.010554707
      5       13          -0.014808755    0.004649527    0.007430318
      6        1           0.009761369   -0.003834020    0.010343000
      7        1          -0.007929990    0.005601801    0.009270229
      8        1          -0.004302330   -0.009577169   -0.005995169
 -------------------------------------------------------------------
 Cartesian Forces:  Max     0.036059372 RMS     0.012686541

 GradGradGradGradGradGradGradGradGradGradGradGradGradGradGradGradGradGrad
 Berny optimization.
 Using GEDIIS/GDIIS optimizer.
 FormGI is forming the generalized inverse of G from B-inverse, IUseBI=4.
 Internal  Forces:  Max     0.027035244 RMS     0.013403121
 Search for a local minimum.
 Step number   2 out of a maximum of   38
 All quantities printed in internal units (Hartrees-Bohrs-Radians)
 Mixed Optimization -- RFO/linear search
 Update second derivatives using D2CorX and points    1    2
 DE= -3.26D-02 DEPred=-3.93D-02 R= 8.29D-01
 TightC=F SS=  1.41D+00  RLast= 3.64D-01 DXNew= 5.0454D-01 1.0910D+00
 Trust test= 8.29D-01 RLast= 3.64D-01 DXMaxT set to 5.05D-01
 ITU=  1  0
 Use linear search instead of GDIIS.
     Eigenvalues ---    0.00230   0.00587   0.03218   0.04312   0.05634
     Eigenvalues ---    0.08062   0.12523   0.14842   0.14869   0.15078
     Eigenvalues ---    0.16000   0.16000   0.16000   0.16000   0.24558
     Eigenvalues ---    0.24878   0.25638   0.28208
 RFO step:  Lambda=-3.48643634D-02 EMin= 2.30137220D-03
 Quartic linear search produced a step of  1.56764.
 Iteration  1 RMS(Cart)=  0.24543914 RMS(Int)=  0.05840805
 Iteration  2 RMS(Cart)=  0.09451720 RMS(Int)=  0.02411784
 Iteration  3 RMS(Cart)=  0.00623296 RMS(Int)=  0.02382022
 Iteration  4 RMS(Cart)=  0.00052605 RMS(Int)=  0.02381934
 Iteration  5 RMS(Cart)=  0.00005634 RMS(Int)=  0.02381934
 Iteration  6 RMS(Cart)=  0.00000602 RMS(Int)=  0.02381933
 Iteration  7 RMS(Cart)=  0.00000065 RMS(Int)=  0.02381933
 Variable       Old X    -DE/DX   Delta X   Delta X   Delta X     New X
                                 (Linear)    (Quad)   (Total)
    R1        2.58229   0.01848   0.04885   0.07354   0.12239   2.70468
    R2        2.58584   0.01561   0.05442   0.03963   0.09405   2.67989
    R3        2.59326   0.01636   0.06604   0.02609   0.09214   2.68540
    R4        5.33455   0.02436   0.30489   0.02927   0.33416   5.66871
    R5        2.94214   0.01141   0.02048   0.11755   0.13803   3.08017
    R6        2.95899   0.00961   0.04690   0.04584   0.09274   3.05173
    R7        2.96340   0.01050   0.05380   0.04551   0.09931   3.06270
    A1        1.87807  -0.00780  -0.05105  -0.16947  -0.26518   1.61289
    A2        1.82873  -0.02275  -0.12840  -0.03716  -0.16642   1.66230
    A3        1.31896   0.02704   0.15901   0.10943   0.26311   1.58207
    A4        1.87548  -0.01225  -0.05512  -0.07743  -0.13286   1.74261
    A5        1.53238   0.01072   0.03908   0.10058   0.13865   1.67103
[...]
    R4        5.13497   0.00003   0.00000   0.00152   0.00152   5.13649
    R5        3.04065  -0.00002   0.00000  -0.00020  -0.00020   3.04045
    R6        3.04056  -0.00001   0.00000  -0.00011  -0.00011   3.04045
    R7        3.04050  -0.00001   0.00000  -0.00005  -0.00005   3.04045
    A1        1.74590  -0.00001   0.00000  -0.00012  -0.00012   1.74578
    A2        1.74606  -0.00001   0.00000  -0.00027  -0.00028   1.74578
    A3        2.05624  -0.00001   0.00000  -0.00054  -0.00054   2.05570
    A4        1.74605  -0.00003   0.00000  -0.00027  -0.00027   1.74578
    A5        2.05391   0.00004   0.00000   0.00179   0.00179   2.05570
    A6        2.05642   0.00001   0.00000  -0.00072  -0.00072   2.05570
    A7        1.68661   0.00002   0.00000   0.00064   0.00064   1.68725
    A8        1.68775  -0.00005   0.00000  -0.00049  -0.00049   1.68726
    A9        1.68791   0.00000   0.00000  -0.00065  -0.00065   1.68726
   A10        2.07074   0.00001   0.00000   0.00043   0.00043   2.07116
   A11        2.07145  -0.00001   0.00000  -0.00029  -0.00029   2.07116
   A12        2.07110   0.00001   0.00000   0.00006   0.00006   2.07116
    D1        1.04561   0.00000   0.00000   0.00158   0.00158   1.04719
    D2        3.13953   0.00001   0.00000   0.00205   0.00205   3.14158
    D3       -1.04909   0.00001   0.00000   0.00188   0.00188  -1.04721
    D4       -1.04782  -0.00001   0.00000   0.00061   0.00061  -1.04721
    D5        1.04610   0.00000   0.00000   0.00108   0.00108   1.04719
    D6        3.14067   0.00000   0.00000   0.00091   0.00091   3.14158
    D7        3.14156  -0.00001   0.00000   0.00003   0.00003   3.14158
    D8       -1.04770  -0.00000   0.00000   0.00050   0.00050  -1.04721
    D9        1.04686  -0.00000   0.00000   0.00033   0.00033   1.04719
         Item               Value     Threshold  Converged?
 Maximum Force            0.000052     0.000450     YES
 RMS     Force            0.000018     0.000300     YES
 Maximum Displacement     0.003224     0.001800     NO 
 RMS     Displacement     0.001290     0.001200     NO 
 Predicted change in Energy=-1.154315D-07
                           ----------------------------
                           ! Non-Optimized Parameters !
                           ! (Angstroms and Degrees)  !
 --------------------------                            --------------------------
 ! Name  Definition              Value          Derivative Info.                !
 --------------------------------------------------------------------------------
 ! R1    R(1,2)                  1.409          -DE/DX =    0.0                 !
 ! R2    R(1,3)                  1.409          -DE/DX =    0.0                 !
 ! R3    R(1,4)                  1.409          -DE/DX =    0.0                 !
 ! R4    R(1,5)                  2.7181         -DE/DX =    0.0                 !
 ! R5    R(5,6)                  1.6089         -DE/DX =    0.0                 !
 ! R6    R(5,7)                  1.6089         -DE/DX =    0.0                 !
 ! R7    R(5,8)                  1.6089         -DE/DX =    0.0                 !
 ! A1    A(2,1,3)              100.026          -DE/DX =    0.0                 !
 ! A2    A(2,1,4)              100.0259         -DE/DX =    0.0                 !
 ! A3    A(2,1,5)              117.783          -DE/DX =    0.0                 !
 ! A4    A(3,1,4)              100.026          -DE/DX =    0.0                 !
 ! A5    A(3,1,5)              117.7828         -DE/DX =    0.0                 !
 ! A6    A(4,1,5)              117.783          -DE/DX =    0.0                 !
 ! A7    A(1,5,6)               96.6725         -DE/DX =    0.0                 !
 ! A8    A(1,5,7)               96.6726         -DE/DX =   -0.0001              !
 ! A9    A(1,5,8)               96.6726         -DE/DX =    0.0                 !
 ! A10   A(6,5,7)              118.6689         -DE/DX =    0.0                 !
 ! A11   A(6,5,8)              118.6689         -DE/DX =    0.0                 !
 ! A12   A(7,5,8)              118.6689         -DE/DX =    0.0                 !
 ! D1    D(2,1,5,6)             59.9994         -DE/DX =    0.0                 !
 ! D2    D(2,1,5,7)            179.9994         -DE/DX =    0.0                 !
 ! D3    D(2,1,5,8)            -60.0006         -DE/DX =    0.0                 !
 ! D4    D(3,1,5,6)            -60.0005         -DE/DX =    0.0                 !
 ! D5    D(3,1,5,7)             59.9995         -DE/DX =    0.0                 !
 ! D6    D(3,1,5,8)            179.9995         -DE/DX =    0.0                 !
 ! D7    D(4,1,5,6)            179.9995         -DE/DX =    0.0                 !
 ! D8    D(4,1,5,7)            -60.0005         -DE/DX =    0.0                 !
 ! D9    D(4,1,5,8)             59.9995         -DE/DX =    0.0                 !
 --------------------------------------------------------------------------------
 GradGradGradGradGradGradGradGradGradGradGradGradGradGradGradGradGradGrad


 ----------------------------------------------------------------------

 Electric dipole moment (input orientation):
 (Debye = 10**-18 statcoulomb cm , SI units = C m)
                  (au)            (Debye)         (10**-30 SI)
   Tot        0.166735D+01      0.423799D+01      0.141364D+02
   x          0.103876D+01      0.264028D+01      0.880702D+01
   y          0.765367D+00      0.194537D+01      0.648905D+01
   z         -0.105606D+01     -0.268422D+01     -0.895361D+01

 Dipole polarizability, Alpha (input orientation).
 (esu units = cm**3 , SI units = C**2 m**2 J**-1)
 Alpha(0;0):
               (au)            (10**-24 esu)      (10**-40 SI)
   iso        0.442576D+02      0.655830D+01      0.729709D+01
   aniso      0.653562D+00      0.968478D-01      0.107758D+00
   xx         0.442995D+02      0.656450D+01      0.730399D+01
   yx         0.184840D+00      0.273905D-01      0.304760D-01
   yy         0.441662D+02      0.654476D+01      0.728202D+01
   zx        -0.260791D+00     -0.386452D-01     -0.429986D-01
   zy        -0.184188D+00     -0.272938D-01     -0.303685D-01
   zz         0.443071D+02      0.656564D+01      0.730525D+01

 First dipole hyperpolarizability, Beta (input orientation).
 ||, _|_  parallel and perpendicular components, (z) with respect to z axis,
 vector components x,y,z.  Values do not include the 1/n! factor of 1/2.
 (esu units = statvolt**-1 cm**4 , SI units = C**3 m**3 J**-2)
 Beta(0;0,0):
               (au)            (10**-30 esu)      (10**-50 SI)
   || (z)     0.761153D+02      0.657577D+00      0.244053D+00
   _|_(z)     0.253718D+02      0.219192D+00      0.813511D-01
   x         -0.375494D+03     -0.324398D+01     -0.120397D+01
   y         -0.277001D+03     -0.239307D+01     -0.888165D+00
   z          0.380577D+03      0.328789D+01      0.122027D+01
   ||         0.120427D+03      0.104039D+01      0.386131D+00
   xxx       -0.430901D+02     -0.372265D+00     -0.138162D+00
   xxy       -0.400968D+02     -0.346405D+00     -0.128565D+00
   yxy       -0.257655D+02     -0.222594D+00     -0.826134D-01
   yyy       -0.120052D+02     -0.103715D+00     -0.384930D-01
   xxz        0.541111D+02      0.467478D+00      0.173500D+00
   yxz        0.454669D+02      0.392799D+00      0.145783D+00
   yyz        0.275175D+02      0.237730D+00      0.882310D-01
   zxz       -0.563093D+02     -0.486468D+00     -0.180548D+00
   zyz       -0.402316D+02     -0.347570D+00     -0.128997D+00
   zzz        0.452303D+02      0.390755D+00      0.145025D+00

 ----------------------------------------------------------------------

 Dipole orientation:
    15         -1.79821399         -2.16558037         -0.47144553
     1         -0.70872196         -0.07789839          0.77099122
     1         -0.53124382         -4.15425084          0.76512252
     1         -4.15048020         -2.26979639          0.77149293
    13         -1.79863334         -2.16511490         -5.60641325
     1          1.21866003         -2.03143994         -5.95801798
     1         -3.19010045         -4.84520248         -5.96132444
     1         -3.42350324          0.38017666         -5.96131332

 Electric dipole moment (dipole orientation):
 (Debye = 10**-18 statcoulomb cm , SI units = C m)
                  (au)            (Debye)         (10**-30 SI)
   Tot        0.166735D+01      0.423799D+01      0.141364D+02
   x          0.000000D+00      0.000000D+00      0.000000D+00
   y          0.000000D+00      0.000000D+00      0.000000D+00
   z          0.166735D+01      0.423799D+01      0.141364D+02

 Dipole polarizability, Alpha (dipole orientation).
 (esu units = cm**3 , SI units = C**2 m**2 J**-1)
 Alpha(0;0):
               (au)            (10**-24 esu)      (10**-40 SI)
   iso        0.442576D+02      0.655830D+01      0.729709D+01
   aniso      0.653562D+00      0.968478D-01      0.107758D+00
   xx         0.440414D+02      0.652627D+01      0.726145D+01
   yx        -0.295127D-02     -0.437334D-03     -0.486599D-03
   yy         0.440382D+02      0.652579D+01      0.726092D+01
   zx         0.382275D-02      0.566473D-03      0.630286D-03
   zy         0.107557D-01      0.159383D-02      0.177337D-02
   zz         0.446931D+02      0.662283D+01      0.736889D+01

 First dipole hyperpolarizability, Beta (dipole orientation).
 ||, _|_  parallel and perpendicular components, (z) with respect to z axis,
 vector components x,y,z.  Values do not include the 1/n! factor of 1/2.
 (esu units = statvolt**-1 cm**4 , SI units = C**3 m**3 J**-2)
 Beta(0;0,0):
               (au)            (10**-30 esu)      (10**-50 SI)
   || (z)    -0.120426D+03     -0.104039D+01     -0.386131D+00
   _|_(z)    -0.401421D+02     -0.346797D+00     -0.128710D+00
   x         -0.669106D+00     -0.578055D-02     -0.214540D-02
   y          0.827697D+00      0.715066D-02      0.265390D-02
   z         -0.602132D+03     -0.520195D+01     -0.193065D+01
   ||         0.120427D+03      0.104039D+01      0.386131D+00
   xxx       -0.177007D+01     -0.152920D-01     -0.567548D-02
   xxy       -0.159727D+00     -0.137992D-02     -0.512143D-03
   yxy        0.173450D+01      0.149847D-01      0.556143D-02
   yyy        0.254519D+00      0.219885D-02      0.816081D-03
   xxz        0.942893D+01      0.814586D-01      0.302326D-01
   yxz        0.692533D-01      0.598294D-03      0.222051D-03
   yyz        0.929209D+01      0.802764D-01      0.297938D-01
   zxz       -0.187465D+00     -0.161955D-02     -0.601082D-03
   zyz        0.181107D+00      0.156462D-02      0.580693D-03
   zzz       -0.219432D+03     -0.189572D+01     -0.703577D+00

 ----------------------------------------------------------------------
 1\1\GINC-IISERK51\Freq\RHF\3-21G\Al1H6P1\GAUSSIAN\17-Jun-2025\0\\#N Ge
 om=AllCheck Guess=TCheck SCRF=Check GenChk RHF/3-21G Freq\\Title Card 
 Required\\0,1\P,-1.0815225609,1.0502289589,0.091218299\H,-0.0389587026
 ,0.2888479963,-0.4731380207\H,-0.3469687327,2.1498187747,0.5775205455\
 H,-1.6303856797,1.6181220311,-1.0755484489\Al,-2.7745361059,-0.1972743
 21,1.8120329401\H,-1.6607975716,-0.6238477702,2.8921442416\H,-3.701214
 7511,1.0807191339,2.1232667348\H,-3.3112398655,-1.3060932437,0.7770258
 686\\Version=EM64L-G16RevB.01\State=1-A\HF=-583.0088551\RMSD=3.974e-10
 \RMSF=1.546e-05\ZeroPoint=0.0477424\Thermal=0.0536077\Dipole=1.0387648
 ,0.7653669,-1.0560553\DipoleDeriv=0.3194311,-0.0330794,0.0456711,-0.03
 2998,0.3400165,0.0333986,0.0456754,0.0335319,0.3176047,-0.1430856,0.05
 0295,0.0602275,-0.0485645,-0.0258131,0.0316584,0.0919091,-0.0450956,-0
 .101906,-0.1151074,-0.093813,-0.0216701,-0.0578397,-0.1234116,-0.02019
 9,0.0576017,0.0747351,-0.0322358,-0.0292768,-0.0428603,0.0806729,0.019
 9292,-0.0847811,0.0765817,-0.0305716,0.0580907,-0.1569608,1.3622318,0.
 1621219,-0.2237498,0.1622373,1.2617815,-0.1649317,-0.2235994,-0.164734
 5,1.3694843,-0.4428752,-0.0022627,0.0013928,-0.012186,-0.4537565,0.031
 6854,0.0189664,0.0346027,-0.489587,-0.4823903,-0.0063999,0.0398451,0.0
 090471,-0.4403317,-0.0050209,0.0349386,0.0070553,-0.4632554,-0.4689276
 ,-0.0340015,0.0176104,-0.0396254,-0.473704,0.0168275,0.0050799,0.00181
 44,-0.443144\Polar=44.2994567,0.1848401,44.166202,-0.2607907,-0.184187
 9,44.3071042\PolarDeriv=-7.7188708,-1.6327597,-3.1329087,3.2772931,-1.
 5055209,-1.1558762,-0.9857911,-4.002625,-5.7485769,-1.5103921,2.464002
 2,-2.1143487,2.4065246,-1.5001998,1.5899909,-2.0342425,-2.7679042,8.19
 48608,8.9438742,-3.707992,0.1559666,-2.8163839,1.6213599,0.9937267,-1.
 6387646,3.216413,-4.4860333,1.444793,-1.558823,-0.9149561,-1.6529689,1
 .391752,0.1295418,3.4037746,-3.185455,-4.0470775,5.5986214,4.2555217,2
 .3556724,2.2722721,0.8196014,-0.7797957,1.6491734,4.0079669,9.3711195,
 1.0751037,1.8588015,-0.4568938,0.683517,0.9891003,0.5445731,1.3584272,
 2.7904399,3.1362222,-3.5154802,1.1348547,-0.2277808,-2.8173666,1.04561
 42,-1.2241223,-0.5498993,-1.931808,4.1806238,0.9696881,-4.0456157,1.91
 34899,0.6553976,1.1017253,-1.3717208,-2.7580817,3.1623094,-10.5587599,
 0.0705931,0.6999063,1.590256,-1.4438999,-0.9953987,1.7776056,1.323345,
 0.7432629,-0.6869751,-0.9939705,-0.0239681,1.8910219,-2.3071089,-1.002
 5569,-0.8842111,0.9388478,1.27224,-0.3231906,5.488391,-0.703125,1.2774
 317,2.0770478,-0.7342532,2.0134668,-0.4803268,1.9049316,-2.5641198,-0.
 1541026,2.515872,-0.6449259,1.3822568,-0.0283652,1.1746898,2.0080648,-
 1.4670845,6.5370668,-5.5602686,2.4917833,-1.2267612,1.2505523,-0.07378
 62,-1.0551816,2.1036348,-2.0551085,6.3176472,-0.9074755,0.596663,1.771
 9987,0.3781153,-0.2181833,0.3589853,-2.0679266,2.3924349,2.0969612,-3.
 3068601,-2.5381893,-0.791876,-1.799515,-0.1776166,-0.5698233,-1.421371
 2,-1.8830328,-6.3836853,0.076356,-1.8069319,-1.4453859,-1.5457335,-0.7
 332726,-1.541849,-0.8488637,-2.1969805,-5.0360829\HyperPolar=-43.09007
 79,-40.0968027,-25.7654669,-12.0051887,54.1110712,45.4668905,27.517471
 1,-56.3092744,-40.2316108,45.2303168\Quadrupole=0.1922841,-0.4345699,0
 .2422858,1.0145254,-1.4015607,-1.0339457\PG=C01 [X(Al1H6P1)]\NImag=0\\
 0.28470445,-0.01824492,0.29593496,0.02505357,0.01845576,0.28406252,-0.
 13651318,0.08333678,0.05474034,0.13641879,0.06306466,-0.07211470,-0.03
 587542,-0.08351511,0.08804027,0.06125282,-0.05161475,-0.06242073,-0.05
 488765,0.04651674,0.05875035,-0.08419074,-0.08240344,-0.04257445,0.009
 44542,0.01406785,0.00768652,0.08116070,-0.07502180,-0.14623553,-0.0550
 9912,-0.00771294,-0.01206655,-0.00427673,0.07825255,0.15085481,-0.0262
 8608,-0.03560089,-0.04060534,-0.00406899,-0.00752512,-0.00493713,0.040
 47120,0.05755187,0.05120051,-0.04566399,0.02334018,-0.04549557,-0.0089
 6395,0.00717032,-0.01479279,-0.00666473,0.00438674,-0.01029481,0.05792
 124,0.03621779,-0.06296501,0.06641048,0.00490016,-0.00653112,0.0124815
 7,-0.00862803,0.00803343,-0.01600874,-0.03469959,0.06125585,-0.0683144
 9,0.06262998,-0.16243366,0.00469783,-0.00294181,0.00794117,-0.00270891
 ,0.00389557,-0.00892008,0.06932194,-0.06358226,0.16404343,-0.01667455,
 -0.00498877,0.00683218,-0.00023870,-0.00039580,0.00032395,0.00074192,0
 .00061035,-0.00057865,0.00498352,0.00375065,-0.00518981,0.16658254,-0.
 00497319,-0.01359913,0.00503727,0.00496489,0.00359572,-0.00501030,-0.0
 0135080,-0.00091946,0.00150845,0.00033792,0.00035502,-0.00050700,-0.04
 618838,0.19516862,0.00686047,0.00506792,-0.01687157,-0.00141138,-0.000
 85103,0.00138262,-0.00490982,-0.00367467,0.00487683,0.00084389,0.00048
 339,-0.00059651,0.06382943,0.04711673,0.16428681,0.00247156,-0.0012599
 3,0.00290523,0.00041558,0.00032350,-0.00058750,0.00026474,0.00032161,-
 0.00041315,-0.00114389,-0.00093419,0.00126350,-0.07235291,0.02073371,-
 0.05257905,0.07251117,0.00204758,-0.00081029,0.00234704,-0.00052967,-0
 .00018543,0.00036612,0.00030051,0.00035782,-0.00039471,-0.00096938,-0.
 00045631,0.00087277,0.02052591,-0.02524209,0.01890016,-0.02356659,0.02
 312948,-0.00296695,0.00138207,-0.00314649,0.00004721,-0.00007227,0.000
 17069,0.00050319,0.00030025,-0.00021890,0.00133068,0.00088648,-0.00098
 510,-0.05221095,0.01896133,-0.06674172,0.05849099,-0.02124377,0.069674
 34,-0.00261987,0.00339265,0.00108748,-0.00096151,-0.00099711,0.0012209
 0,0.00025032,0.00000246,-0.00015545,-0.00023513,-0.00041984,0.00042877
 ,-0.05364601,0.05102698,0.01141686,-0.00200371,0.00578300,-0.00006097,
 0.05500635,-0.00180625,0.00208192,0.00079128,-0.00094179,-0.00054886,0
 .00097236,0.00061928,0.00037010,-0.00049484,0.00033841,0.00016151,-0.0
 0035665,0.05135279,-0.08936179,-0.01705561,0.00346511,-0.00043728,-0.0
 0061890,-0.05737842,0.09183654,0.00276154,-0.00326198,-0.00093110,0.00
 120662,0.00101823,-0.00107065,0.00024560,0.00038665,-0.00021456,-0.000
 41462,-0.00016853,0.00046894,0.01130983,-0.01680268,-0.02135429,-0.004
 76607,0.00418734,0.00358312,-0.01271442,0.02001277,0.01848142,-0.00151
 367,-0.00317254,-0.00254878,0.00039755,0.00028169,-0.00021624,-0.00100
 763,-0.00083896,0.00132593,-0.00023308,-0.00018695,0.00050118,-0.02939
 581,-0.02455112,-0.02405041,-0.00016255,-0.00359136,-0.00513320,0.0042
 0957,0.00435087,0.00237151,0.02770562,-0.00128386,-0.00229223,-0.00206
 728,-0.00050231,-0.00018933,0.00056501,-0.00085792,-0.00039463,0.00096
 398,0.00009540,0.00014664,-0.00001060,-0.02466675,-0.06999689,-0.04998
 689,0.00091677,0.00364410,0.00040480,-0.00140971,-0.00410215,-0.005371
 79,0.02770837,0.07318449,0.00163912,0.00294190,0.00234637,-0.00032399,
 -0.00026931,0.00018367,0.00128667,0.00091617,-0.00118133,-0.00049873,-
 0.00050239,0.00048181,-0.02431599,-0.05030380,-0.06498218,-0.00431395,
 -0.00503494,-0.00233595,-0.00122316,-0.00325041,0.00103712,0.02775002,
 0.05550277,0.06445049\\0.00000312,-0.00001704,-0.00002868,0.00000547,0
 .00000256,0.00000585,-0.00000982,-0.00001158,0.00002403,-0.00000912,-0
 .00000701,0.00001034,0.00001558,0.00002677,-0.00003558,0.00001694,0.00
 000863,0.00001605,-0.00001296,-0.00000124,0.00001742,-0.00000921,-0.00
 000109,-0.00000942\\\@


 "THE ACADEMIC HIERARCHY"


 THE PRESIDENT:
   LEAPS TALL BUILDINGS IN A SINGLE BOUND,
     IS MORE POWERFUL THAN A LOCOMOTIVE,
       IS FASTER THAN A SPEEDING BULLET,
         WALKS ON WATER,
           GIVES POLICY TO GOD.

 THE VICE PRESIDENT FOR ACADEMIC AFFAIRS:
   LEAPS SHORT BUILDINGS IN A SINGLE BOUND,
     IS MORE POWERFUL THAN A SWITCH ENGINE,
       IS JUST AS FAST AS A SPEEDING BULLET,
         WALKS ON WATER IF SEA IS CALM,
           TALKS WITH GOD.

 PROFESSOR:
   LEAPS SHORT BUILDINGS WITH A RUNNING START AND FAVORABLE WINDS,
     IS ALMOST AS POWERFUL AS A SWITCH ENGINE,
       CAN FIRE A SPEEDING BULLET,
         WALKS ON WATER IN AN INDOOR SWIMMING POOL,
          TALKS WITH GOD IF SPECIAL REQUEST IS APPROVED.

 ASSOCIATE PROFESSOR:
   BARELY CLEARS A QUONSET HUT,
     LOSES TUG OF WAR WITH LOCOMOTIVE,
       MISFIRES FREQUENTLY,
         SWIMS WELL,
           IS OCCASIONALLY ADDRESSED BY GOD.

 ASSISTANT PROFESSOR:
   MAKES HIGH MARKS ON WALLS WHEN TRYING TO LEAP TALL BUILDINGS,
     IS RUN OVER BY LOCOMOTIVES,
       CAN SOMETIMES HANDLE A GUN WITHOUT INFLICTING SELF INJURY,
         DOG PADDLES,
           TALKS TO ANIMALS.

 GRADUATE STUDENT:
   RUNS INTO BUILDINGS,
     RECOGNIZES LOCOMOTIVES TWO OUT OF THREE TIMES,
       IS NOT ISSUED AMMUNITION,
         CAN STAY AFLOAT WITH A LIFE JACKET,
           TALKS TO WALLS.

 UNDERGRADUATE AND WORK STUDY STUDENT:
   FALLS OVER DOORSTEP WHEN TRYING TO ENTER BUILDINGS,
     SAYS, "LOOK AT THE CHOO-CHOO,"
       WETS HIMSELF WITH A WATER PISTOL,
        PLAYS IN MUD PUDDLES,
          MUMBLES TO HIMSELF.

 DEPARTMENT SECRETARY:
   LIFTS TALL BUILDINGS AND WALKS UNDER THEM,
     KICKS LOCOMOTIVES OFF THE TRACKS,
       CATCHES SPEEDING BULLETS IN HER TEETH AND EATS THEM,
         FREEZES WATER WITH A SINGLE GLANCE,
           IS GOD.
 Job cpu time:       0 days  0 hours  0 minutes  0.8 seconds.
 Elapsed time:       0 days  0 hours  0 minutes  0.8 seconds.
 File lengths (MBytes):  RWF=      6 Int=      0 D2E=      0 Chk=      1 Scr=      1
 Normal termination of Gaussian 16 at Tue Jun 17 15:24:12 2025.
