 Entering Gaussian System, Link 0=g16
 Input=/home/gaussian/Documents/jeeva/Aromaticity/napthalene/Meth_napthalene_isomer.com
 Output=/home/gaussian/Documents/jeeva/Aromaticity/napthalene/Meth_napthalene_isomer.log
 Initial command:
 /usr/local/g16/l1.exe "/home/gaussian/tmp/Gau-97924.inp" -scrdir="/home/gaussian/tmp/"
 Entering Link 1 = /usr/local/g16/l1.exe PID=     97927.
  
 Copyright (c) 1988-2017, Gaussian, Inc.  All Rights Reserved.
  
 This is part of the Gaussian(R) 16 program.  It is based on
 the Gaussian(R) 09 system (copyright 2009, Gaussian, Inc.),
 the Gaussian(R) 03 system (copyright 2003, Gaussian, Inc.),
 the Gaussian(R) 98 system (copyright 1998, Gaussian, Inc.),
 the Gaussian(R) 94 system (copyright 1995, Gaussian, Inc.),
 the Gaussian 92(TM) system (copyright 1992, Gaussian, Inc.),
 the Gaussian 90(TM) system (copyright 1990, Gaussian, Inc.),
 the Gaussian 88(TM) system (copyright 1988, Gaussian, Inc.),
 the Gaussian 86(TM) system (copyright 1986, Carnegie Mellon
 University), and the Gaussian 82(TM) system (copyright 1983,
 Carnegie Mellon University). Gaussian is a federally registered
 trademark of Gaussian, Inc.
  
 This software contains proprietary and confidential information,
 including trade secrets, belonging to Gaussian, Inc.
  
 This software is provided under written license and may be
 used, copied, transmitted, or stored only in accord with that
 written license.
  
 The following legend is applicable only to US Government
 contracts under FAR:
  
                    RESTRICTED RIGHTS LEGEND
  
 Use, reproduction and disclosure by the US Government is
 subject to restrictions as set forth in subparagraphs (a)
 and (c) of the Commercial Computer Software - Restricted
 Rights clause in FAR 52.227-19.
  
 Gaussian, Inc.
 340 Quinnipiac St., Bldg. 40, Wallingford CT 06492
  
  
 ---------------------------------------------------------------
 Warning -- This program may not be used in any manner that
 competes with the business of Gaussian, Inc. or will provide
 assistance to any competitor of Gaussian, Inc.  The licensee
 of this program is prohibited from giving any competitor of
 Gaussian, Inc. access to this program.  By using this program,
 the user acknowledges that Gaussian, Inc. is engaged in the
 business of creating and licensing software in the field of
 computational chemistry and represents and warrants to the
 licensee that it is not a competitor of Gaussian, Inc. and that
 it will not use this program in any manner prohibited above.
 ---------------------------------------------------------------
  

 Cite this work as:
 Gaussian 16, Revision B.01,
 M. J. Frisch, G. W. Trucks, H. B. Schlegel, G. E. Scuseria, 
 M. A. Robb, J. R. Cheeseman, G. Scalmani, V. Barone, 
 G. A. Petersson, H. Nakatsuji, X. Li, M. Caricato, A. V. Marenich, 
 J. Bloino, B. G. Janesko, R. Gomperts, B. Mennucci, H. P. Hratchian, 
 J. V. Ortiz, A. F. Izmaylov, J. L. Sonnenberg, D. Williams-Young, 
 F. Ding, F. Lipparini, F. Egidi, J. Goings, B. Peng, A. Petrone, 
 T. Henderson, D. Ranasinghe, V. G. Zakrzewski, J. Gao, N. Rega, 
 G. Zheng, W. Liang, M. Hada, M. Ehara, K. Toyota, R. Fukuda, 
 J. Hasegawa, M. Ishida, T. Nakajima, Y. Honda, O. Kitao, H. Nakai, 
 T. Vreven, K. Throssell, J. A. Montgomery, Jr., J. E. Peralta, 
 F. Ogliaro, M. J. Bearpark, J. J. Heyd, E. N. Brothers, K. N. Kudin, 
 V. N. Staroverov, T. A. Keith, R. Kobayashi, J. Normand, 
 K. Raghavachari, A. P. Rendell, J. C. Burant, S. S. Iyengar, 
 J. Tomasi, M. Cossi, J. M. Millam, M. Klene, C. Adamo, R. Cammi, 
 J. W. Ochterski, R. L. Martin, K. Morokuma, O. Farkas, 
 J. B. Foresman, and D. J. Fox, Gaussian, Inc., Wallingford CT, 2016.
 
 ******************************************
 Gaussian 16:  EM64L-G16RevB.01 20-Dec-2017
                 9-Jun-2025 
 ******************************************
 %chk=Meth_napthalene_isomer.chk
 -------------------------------------
 # opt freq hf/3-21g geom=connectivity
 -------------------------------------
 1/18=20,19=15,38=1,57=2/1,3;
 2/9=110,12=2,17=6,18=5,40=1/2;
 3/5=5,11=9,25=1,30=1,71=1/1,2,3;
 4//1;
 5/5=2,38=5/2;
 6/7=2,8=2,9=2,10=2,28=1/1;
 7//1,2,3,16;
 1/18=20,19=15/3(2);
 2/9=110/2;
 99//99;
 2/9=110/2;
 3/5=5,11=9,25=1,30=1,71=1/1,2,3;
 4/5=5,16=3,69=1/1;
 5/5=2,38=5/2;
 7//1,2,3,16;
 1/18=20,19=15/3(-5);
 2/9=110/2;
 6/7=2,8=2,9=2,10=2,19=2,28=1/1;
 99/9=1/99;
 ------------
 Optimisation
 ------------
 Symbolic Z-matrix:
 Charge =  0 Multiplicity = 1
 C                    -4.15355  -3.16523   2.17158 
 C                    -2.66252  -3.14245   2.55564 
 C                    -1.9786   -1.97309   2.53566 
 C                    -2.70974  -0.6589    2.23232 
 C                    -4.00887  -0.68166   1.84728 
 C                    -4.77769  -2.0159    1.81565 
 H                     0.02936  -2.85504   3.11265 
 H                    -4.69539  -4.08783   2.18232 
 H                    -2.16583  -4.04945   2.83052 
 C                    -0.46613  -1.96077   2.79694 
 C                    -1.97787   0.68718   2.38178 
 H                    -4.50212   0.22729   1.57266 
 H                    -5.80476  -2.03499   1.51622 
 C                    -0.44924   0.51064   2.2483 
 C                     0.24688  -0.82367   2.60169 
 H                     1.31331  -0.85314   2.68392 
 C                     0.30186   1.55604   1.82457 
 H                     1.36263   1.4502    1.73268 
 H                    -0.16589   2.48729   1.5819 
 H                    -2.32848   1.36785   1.63434 
 H                    -2.18622   1.08082   3.35468 
 

 GradGradGradGradGradGradGradGradGradGradGradGradGradGradGradGradGradGrad
 Berny optimization.
 Initialization pass.
                           ----------------------------
                           !    Initial Parameters    !
                           ! (Angstroms and Degrees)  !
 --------------------------                            --------------------------
 ! Name  Definition              Value          Derivative Info.                !
 --------------------------------------------------------------------------------
 ! R1    R(1,2)                  1.5399         estimate D2E/DX2                !
 ! R2    R(1,6)                  1.3554         estimate D2E/DX2                !
 ! R3    R(1,8)                  1.07           estimate D2E/DX2                !
 ! R4    R(2,3)                  1.3548         estimate D2E/DX2                !
 ! R5    R(2,9)                  1.07           estimate D2E/DX2                !
 ! R6    R(3,4)                  1.5342         estimate D2E/DX2                !
 ! R7    R(3,10)                 1.5349         estimate D2E/DX2                !
 ! R8    R(4,5)                  1.3552         estimate D2E/DX2                !
 ! R9    R(4,11)                 1.5395         estimate D2E/DX2                !
 ! R10   R(5,6)                  1.5402         estimate D2E/DX2                !
 ! R11   R(5,12)                 1.07           estimate D2E/DX2                !
 ! R12   R(6,13)                 1.07           estimate D2E/DX2                !
 ! R13   R(7,10)                 1.07           estimate D2E/DX2                !
 ! R14   R(10,15)                1.3563         estimate D2E/DX2                !
 ! R15   R(11,14)                1.5446         estimate D2E/DX2                !
 ! R16   R(11,20)                1.07           estimate D2E/DX2                !
 ! R17   R(11,21)                1.07           estimate D2E/DX2                !
 ! R18   R(14,15)                1.5459         estimate D2E/DX2                !
 ! R19   R(14,17)                1.3552         estimate D2E/DX2                !
 ! R20   R(15,16)                1.07           estimate D2E/DX2                !
 ! R21   R(17,18)                1.07           estimate D2E/DX2                !
 ! R22   R(17,19)                1.07           estimate D2E/DX2                !
 ! A1    A(2,1,6)              119.922          estimate D2E/DX2                !
 ! A2    A(2,1,8)              120.0384         estimate D2E/DX2                !
 ! A3    A(6,1,8)              120.0393         estimate D2E/DX2                !
 ! A4    A(1,2,3)              119.86           estimate D2E/DX2                !
 ! A5    A(1,2,9)              120.067          estimate D2E/DX2                !
 ! A6    A(3,2,9)              120.0714         estimate D2E/DX2                !
 ! A7    A(2,3,4)              120.112          estimate D2E/DX2                !
 ! A8    A(2,3,10)             120.1215         estimate D2E/DX2                !
 ! A9    A(4,3,10)             119.7609         estimate D2E/DX2                !
 ! A10   A(3,4,5)              119.9107         estimate D2E/DX2                !
 ! A11   A(3,4,11)             120.2156         estimate D2E/DX2                !
 ! A12   A(5,4,11)             119.8688         estimate D2E/DX2                !
 ! A13   A(4,5,6)              119.9273         estimate D2E/DX2                !
 ! A14   A(4,5,12)             120.0378         estimate D2E/DX2                !
 ! A15   A(6,5,12)             120.0333         estimate D2E/DX2                !
 ! A16   A(1,6,5)              119.9538         estimate D2E/DX2                !
 ! A17   A(1,6,13)             120.0233         estimate D2E/DX2                !
 ! A18   A(5,6,13)             120.0225         estimate D2E/DX2                !
 ! A19   A(3,10,7)             119.9882         estimate D2E/DX2                !
 ! A20   A(3,10,15)            120.016          estimate D2E/DX2                !
 ! A21   A(7,10,15)            119.9824         estimate D2E/DX2                !
 ! A22   A(4,11,14)            111.2336         estimate D2E/DX2                !
 ! A23   A(4,11,20)            109.4288         estimate D2E/DX2                !
 ! A24   A(4,11,21)            108.5042         estimate D2E/DX2                !
 ! A25   A(14,11,20)           109.6721         estimate D2E/DX2                !
 ! A26   A(14,11,21)           108.2602         estimate D2E/DX2                !
 ! A27   A(20,11,21)           109.7142         estimate D2E/DX2                !
 ! A28   A(11,14,15)           121.6381         estimate D2E/DX2                !
 ! A29   A(11,14,17)           119.1674         estimate D2E/DX2                !
 ! A30   A(15,14,17)           119.1906         estimate D2E/DX2                !
 ! A31   A(10,15,14)           121.3202         estimate D2E/DX2                !
 ! A32   A(10,15,16)           119.3272         estimate D2E/DX2                !
 ! A33   A(14,15,16)           119.3495         estimate D2E/DX2                !
 ! A34   A(14,17,18)           120.0            estimate D2E/DX2                !
 ! A35   A(14,17,19)           120.0            estimate D2E/DX2                !
 ! A36   A(18,17,19)           120.0            estimate D2E/DX2                !
 ! D1    D(6,1,2,3)             -0.0447         estimate D2E/DX2                !
 ! D2    D(6,1,2,9)           -179.5819         estimate D2E/DX2                !
 ! D3    D(8,1,2,3)            179.7382         estimate D2E/DX2                !
 ! D4    D(8,1,2,9)              0.201          estimate D2E/DX2                !
 ! D5    D(2,1,6,5)             -2.3104         estimate D2E/DX2                !
 ! D6    D(2,1,6,13)           177.9047         estimate D2E/DX2                !
 ! D7    D(8,1,6,5)            177.9067         estimate D2E/DX2                !
 ! D8    D(8,1,6,13)            -1.8782         estimate D2E/DX2                !
 ! D9    D(1,2,3,4)              4.5107         estimate D2E/DX2                !
 ! D10   D(1,2,3,10)          -174.6286         estimate D2E/DX2                !
 ! D11   D(9,2,3,4)           -175.9521         estimate D2E/DX2                !
 ! D12   D(9,2,3,10)             4.9086         estimate D2E/DX2                !
 ! D13   D(2,3,4,5)             -6.8962         estimate D2E/DX2                !
 ! D14   D(2,3,4,11)           172.2966         estimate D2E/DX2                !
 ! D15   D(10,3,4,5)           172.2463         estimate D2E/DX2                !
 ! D16   D(10,3,4,11)           -8.5609         estimate D2E/DX2                !
 ! D17   D(2,3,10,7)            -7.494          estimate D2E/DX2                !
 ! D18   D(2,3,10,15)          171.1729         estimate D2E/DX2                !
 ! D19   D(4,3,10,7)           173.3637         estimate D2E/DX2                !
 ! D20   D(4,3,10,15)           -7.9694         estimate D2E/DX2                !
 ! D21   D(3,4,5,6)              4.5213         estimate D2E/DX2                !
 ! D22   D(3,4,5,12)          -175.942          estimate D2E/DX2                !
 ! D23   D(11,4,5,6)          -174.6743         estimate D2E/DX2                !
 ! D24   D(11,4,5,12)            4.8624         estimate D2E/DX2                !
 ! D25   D(3,4,11,14)           24.1909         estimate D2E/DX2                !
 ! D26   D(3,4,11,20)          145.5239         estimate D2E/DX2                !
 ! D27   D(3,4,11,21)          -94.79           estimate D2E/DX2                !
 ! D28   D(5,4,11,14)         -156.616          estimate D2E/DX2                !
 ! D29   D(5,4,11,20)          -35.2829         estimate D2E/DX2                !
 ! D30   D(5,4,11,21)           84.4031         estimate D2E/DX2                !
 ! D31   D(4,5,6,1)             -0.0668         estimate D2E/DX2                !
 ! D32   D(4,5,6,13)           179.7181         estimate D2E/DX2                !
 ! D33   D(12,5,6,1)          -179.6036         estimate D2E/DX2                !
 ! D34   D(12,5,6,13)            0.1813         estimate D2E/DX2                !
 ! D35   D(3,10,15,14)           5.9415         estimate D2E/DX2                !
 ! D36   D(3,10,15,16)        -173.4136         estimate D2E/DX2                !
 ! D37   D(7,10,15,14)        -175.3915         estimate D2E/DX2                !
 ! D38   D(7,10,15,16)           5.2533         estimate D2E/DX2                !
 ! D39   D(4,11,14,15)         -26.7877         estimate D2E/DX2                !
 ! D40   D(4,11,14,17)         153.9335         estimate D2E/DX2                !
 ! D41   D(20,11,14,15)       -147.9785         estimate D2E/DX2                !
 ! D42   D(20,11,14,17)         32.7428         estimate D2E/DX2                !
 ! D43   D(21,11,14,15)         92.3392         estimate D2E/DX2                !
 ! D44   D(21,11,14,17)        -86.9395         estimate D2E/DX2                !
 ! D45   D(11,14,15,10)         12.6828         estimate D2E/DX2                !
 ! D46   D(11,14,15,16)       -167.9622         estimate D2E/DX2                !
 ! D47   D(17,14,15,10)       -168.0386         estimate D2E/DX2                !
 ! D48   D(17,14,15,16)         11.3164         estimate D2E/DX2                !
 ! D49   D(11,14,17,18)        179.6483         estimate D2E/DX2                !
 ! D50   D(11,14,17,19)         -0.3517         estimate D2E/DX2                !
 ! D51   D(15,14,17,18)          0.3517         estimate D2E/DX2                !
 ! D52   D(15,14,17,19)       -179.6483         estimate D2E/DX2                !
 --------------------------------------------------------------------------------
 Trust Radius=3.00D-01 FncErr=1.00D-07 GrdErr=1.00D-07 EigMax=2.50D+02 EigMin=1.00D-04
 Number of steps in this run=    120 maximum allowed number of steps=    126.
 GradGradGradGradGradGradGradGradGradGradGradGradGradGradGradGradGradGrad

                          Input orientation:                          
 ---------------------------------------------------------------------
 Center     Atomic      Atomic             Coordinates (Angstroms)
 Number     Number       Type             X           Y           Z
 ---------------------------------------------------------------------
      1          6           0       -4.153550   -3.165230    2.171582
      2          6           0       -2.662523   -3.142455    2.555635
      3          6           0       -1.978605   -1.973092    2.535665
      4          6           0       -2.709744   -0.658902    2.232324
      5          6           0       -4.008872   -0.681662    1.847284
      6          6           0       -4.777689   -2.015898    1.815654
      7          1           0        0.029363   -2.855041    3.112651
      8          1           0       -4.695388   -4.087833    2.182324
      9          1           0       -2.165832   -4.049447    2.830521
     10          6           0       -0.466129   -1.960775    2.796936
     11          6           0       -1.977873    0.687184    2.381778
     12          1           0       -4.502121    0.227285    1.572658
     13          1           0       -5.804759   -2.034991    1.516217
     14          6           0       -0.449242    0.510641    2.248303
     15          6           0        0.246880   -0.823669    2.601689
     16          1           0        1.313308   -0.853140    2.683923
     17          6           0        0.301855    1.556045    1.824569
     18          1           0        1.362635    1.450198    1.732682
     19          1           0       -0.165894    2.487292    1.581897
     20          1           0       -2.328484    1.367848    1.634336
     21          1           0       -2.186223    1.080818    3.354682
 ---------------------------------------------------------------------
                    Distance matrix (angstroms):
                    1          2          3          4          5
     1  C    0.000000
     2  C    1.539862   0.000000
     3  C    2.506818   1.354826   0.000000
     4  C    2.893086   2.504954   1.534169   0.000000
     5  C    2.508826   2.893081   2.502727   1.355178   0.000000
     6  C    1.355433   2.508112   2.890522   2.508276   1.540216
     7  H    4.298672   2.763897   2.267748   3.619490   4.757317
     8  H    1.070000   2.272804   3.460909   3.962682   3.490781
     9  H    2.273117   1.070000   2.105528   3.485610   3.963020
    10  C    3.929231   2.505742   1.534926   2.654707   3.884456
    11  C    4.429317   3.894240   2.664723   1.539454   2.506867
    12  H    3.462567   3.963018   3.483845   2.105494   1.070000
    13  H    2.105572   3.490059   3.960121   3.462016   2.272953
    14  C    5.219177   4.282310   2.930948   2.545182   3.775363
    15  C    5.003167   3.720688   2.505656   2.984159   4.324433
    16  H    5.957750   4.589625   3.480368   4.052976   5.390266
    17  C    6.500884   5.603383   4.261568   3.760583   4.856976
    18  H    7.205768   6.162111   4.850523   4.613265   5.780229
    19  H    6.942631   6.235012   4.908219   4.097897   4.988104
    20  H    4.916126   4.615539   3.478029   2.147245   2.658861
    21  H    4.826906   4.324508   3.168637   2.135506   2.949684
                    6          7          8          9         10
     6  C    0.000000
     7  H    5.049169   0.000000
     8  H    2.105738   4.970770   0.000000
     9  H    3.462235   2.514972   2.611567   0.000000
    10  C    4.422161   1.070000   4.773757   2.693079   0.000000
    11  C    3.932699   4.136488   5.497768   4.761552   3.077241
    12  H    2.273072   5.692685   4.362257   5.032982   4.751389
    13  H    1.070000   6.103938   2.426636   4.362020   5.490603
    14  C    5.030511   3.507702   6.259398   4.907144   2.531636
    15  C    5.223558   2.105912   5.937730   4.034748   1.356286
    16  H    6.261481   2.416595   6.842461   4.726763   2.099053
    17  C    6.209720   4.603378   7.546773   6.206687   3.728715
    18  H    7.051545   4.713493   8.220195   6.625815   4.013944
    19  H    6.449962   5.560742   8.006815   6.948940   4.620796
    20  H    4.181055   5.057435   5.972184   5.550171   3.987447
    21  H    4.321337   4.523095   5.863897   5.157013   3.538515
                   11         12         13         14         15
    11  C    0.000000
    12  H    2.690355   0.000000
    13  H    4.775405   2.611120   0.000000
    14  C    1.544570   4.118570   5.974760   0.000000
    15  C    2.698253   4.971561   6.266409   1.545915   0.000000
    16  H    3.646336   6.018426   7.309391   2.270737   1.070000
    17  C    2.502511   4.990717   7.090935   1.355200   2.503992
    18  H    3.487479   5.993036   7.972762   2.105120   2.677789
    19  H    2.676465   4.889845   7.228565   2.105120   3.488957
    20  H    1.070000   2.455481   4.865979   2.154834   3.517246
    21  H    1.070000   3.044259   5.116838   2.136885   3.180261
                   16         17         18         19         20
    16  H    0.000000
    17  C    2.750581   0.000000
    18  H    2.492520   1.070000   0.000000
    19  H    3.815885   1.070000   1.853294   0.000000
    20  H    4.392843   2.643916   3.693347   2.435713   0.000000
    21  H    4.054236   2.959327   3.919402   3.033589   1.749919
                   21
    21  H    0.000000
 Stoichiometry    C11H10
 Framework group  C1[X(C11H10)]
 Deg. of freedom    57
 Full point group                 C1      NOp   1
 Largest Abelian subgroup         C1      NOp   1
 Largest concise Abelian subgroup C1      NOp   1
                         Standard orientation:                         
 ---------------------------------------------------------------------
 Center     Atomic      Atomic             Coordinates (Angstroms)
 Number     Number       Type             X           Y           Z
 ---------------------------------------------------------------------
      1          6           0        2.989844    0.374342   -0.131970
      2          6           0        1.792722    1.333067    0.005583
      3          6           0        0.535101    0.835080    0.082730
      4          6           0        0.309805   -0.681469    0.137478
      5          6           0        1.355591   -1.526554   -0.031845
      6          6           0        2.782455   -0.964454   -0.174566
      7          1           0       -0.517352    2.842132    0.164973
      8          1           0        3.983941    0.764721   -0.197347
      9          1           0        1.953220    2.390614    0.032709
     10          6           0       -0.670209    1.785371    0.095758
     11          6           0       -1.097410   -1.246581    0.402643
     12          1           0        1.191173   -2.583499   -0.058927
     13          1           0        3.609819   -1.630537   -0.303798
     14          6           0       -2.192006   -0.235382   -0.003597
     15          6           0       -1.927666    1.287760   -0.007674
     16          1           0       -2.752157    1.962877   -0.104261
     17          6           0       -3.418867   -0.694228   -0.351215
     18          1           0       -4.188706   -0.005153   -0.629467
     19          1           0       -3.617699   -1.745585   -0.347426
     20          1           0       -1.225177   -2.155810   -0.146790
     21          1           0       -1.193219   -1.441481    1.450372
 ---------------------------------------------------------------------
 Rotational constants (GHZ):           2.4751147           0.8270034           0.6311383
 Standard basis: 3-21G (6D, 7F)
 There are   119 symmetry adapted cartesian basis functions of A   symmetry.
 There are   119 symmetry adapted basis functions of A   symmetry.
   119 basis functions,   195 primitive gaussians,   119 cartesian basis functions
    38 alpha electrons       38 beta electrons
       nuclear repulsion energy       530.5457654919 Hartrees.
 NAtoms=   21 NActive=   21 NUniq=   21 SFac= 1.00D+00 NAtFMM=   60 NAOKFM=F Big=F
 Integral buffers will be    131072 words long.
 Raffenetti 1 integral format.
 Two-electron integral symmetry is turned on.
 One-electron integrals computed using PRISM.
 NBasis=   119 RedAO= T EigKep=  1.83D-03  NBF=   119
 NBsUse=   119 1.00D-06 EigRej= -1.00D+00 NBFU=   119
 ExpMin= 1.83D-01 ExpMax= 1.72D+02 ExpMxC= 1.72D+02 IAcc=3 IRadAn=         5 AccDes= 0.00D+00
 Harris functional with IExCor=  205 and IRadAn=       5 diagonalized for initial guess.
 HarFok:  IExCor=  205 AccDes= 0.00D+00 IRadAn=         5 IDoV= 1 UseB2=F ITyADJ=14
 ICtDFT=  3500011 ScaDFX=  1.000000  1.000000  1.000000  1.000000
 FoFCou: FMM=F IPFlag=           0 FMFlag=      100000 FMFlg1=           0
         NFxFlg=           0 DoJE=T BraDBF=F KetDBF=T FulRan=T
         wScrn=  0.000000 ICntrl=       500 IOpCl=  0 I1Cent=   200000004 NGrid=           0
         NMat0=    1 NMatS0=      1 NMatT0=    0 NMatD0=    1 NMtDS0=    0 NMtDT0=    0
 Petite list used in FoFCou.
 Keep R1 ints in memory in canonical form, NReq=26359155.
 Requested convergence on RMS density matrix=1.00D-08 within 128 cycles.
 Requested convergence on MAX density matrix=1.00D-06.
 Requested convergence on             energy=1.00D-06.
 No special actions if energy rises.
 SCF Done:  E(RHF) =  -419.954531077     A.U. after   14 cycles
            NFock= 14  Conv=0.85D-08     -V/T= 2.0045

 **********************************************************************

            Population analysis using the SCF Density.

 **********************************************************************

 Orbital symmetries:
       Occupied  (A) (A) (A) (A) (A) (A) (A) (A) (A) (A) (A) (A)
                 (A) (A) (A) (A) (A) (A) (A) (A) (A) (A) (A) (A)
                 (A) (A) (A) (A) (A) (A) (A) (A) (A) (A) (A) (A)
                 (A) (A)
       Virtual   (A) (A) (A) (A) (A) (A) (A) (A) (A) (A) (A) (A)
                 (A) (A) (A) (A) (A) (A) (A) (A) (A) (A) (A) (A)
                 (A) (A) (A) (A) (A) (A) (A) (A) (A) (A) (A) (A)
                 (A) (A) (A) (A) (A) (A) (A) (A) (A) (A) (A) (A)
                 (A) (A) (A) (A) (A) (A) (A) (A) (A) (A) (A) (A)
                 (A) (A) (A) (A) (A) (A) (A) (A) (A) (A) (A) (A)
                 (A) (A) (A) (A) (A) (A) (A) (A) (A)
 The electronic state is 1-A.
 Alpha  occ. eigenvalues --  -11.20580 -11.20310 -11.20281 -11.19240 -11.19153
 Alpha  occ. eigenvalues --  -11.18988 -11.18887 -11.18777 -11.18615 -11.18306
 Alpha  occ. eigenvalues --  -11.16377  -1.14557  -1.09231  -1.05131  -1.01796
 Alpha  occ. eigenvalues --   -0.98413  -0.92613  -0.82688  -0.80323  -0.78517
 Alpha  occ. eigenvalues --   -0.71038  -0.68286  -0.65520  -0.63534  -0.62122
 Alpha  occ. eigenvalues --   -0.60558  -0.58371  -0.57026  -0.55886  -0.54300
 Alpha  occ. eigenvalues --   -0.50210  -0.48872  -0.47066  -0.45511  -0.42775
 Alpha  occ. eigenvalues --   -0.35840  -0.32991  -0.28859
 Alpha virt. eigenvalues --    0.09842   0.14303   0.17318   0.25904   0.27047
 Alpha virt. eigenvalues --    0.28395   0.28713   0.31578   0.32575   0.33634
 Alpha virt. eigenvalues --    0.34397   0.34499   0.36352   0.37250   0.38289
 Alpha virt. eigenvalues --    0.40548   0.41947   0.47418   0.48709   0.49852
 Alpha virt. eigenvalues --    0.53067   0.55795   0.58056   0.64173   0.65842
 Alpha virt. eigenvalues --    0.73044   0.81423   0.83564   0.88511   0.94110
 Alpha virt. eigenvalues --    0.95438   0.95833   0.97559   0.97775   1.00091
 Alpha virt. eigenvalues --    1.02957   1.03743   1.05407   1.06795   1.08510
 Alpha virt. eigenvalues --    1.09250   1.09739   1.10396   1.11379   1.13142
 Alpha virt. eigenvalues --    1.15035   1.16409   1.17403   1.20694   1.26720
 Alpha virt. eigenvalues --    1.30252   1.31335   1.31853   1.33745   1.36831
 Alpha virt. eigenvalues --    1.38585   1.40554   1.42818   1.44180   1.45755
 Alpha virt. eigenvalues --    1.48188   1.53931   1.55726   1.56683   1.60285
 Alpha virt. eigenvalues --    1.66943   1.69450   1.71996   1.74739   1.77062
 Alpha virt. eigenvalues --    1.78554   1.81327   1.84680   1.86794   1.98558
 Alpha virt. eigenvalues --    2.05784   2.14341   2.18468   2.32794   2.59770
 Alpha virt. eigenvalues --    2.69254
          Condensed to atoms (all electrons):
               1          2          3          4          5          6
     1  C    5.139478   0.429684  -0.092130  -0.003167  -0.087217   0.510646
     2  C    0.429684   5.158108   0.489936  -0.060378  -0.008458  -0.088780
     3  C   -0.092130   0.489936   5.162178   0.418660  -0.066415  -0.000403
     4  C   -0.003167  -0.060378   0.418660   5.239981   0.513398  -0.090464
     5  C   -0.087217  -0.008458  -0.066415   0.513398   5.151503   0.426522
     6  C    0.510646  -0.088780  -0.000403  -0.090464   0.426522   5.137224
     7  H   -0.000003   0.001984  -0.031257   0.000953  -0.000027   0.000001
     8  H    0.396131  -0.025659   0.001660  -0.000112   0.002185  -0.040180
     9  H   -0.021925   0.400741  -0.046100   0.002012  -0.000016   0.001325
    10  C    0.001644  -0.065454   0.346211  -0.037288   0.001078   0.000176
    11  C    0.000120   0.001072  -0.041771   0.256603  -0.066479   0.001807
    12  H    0.001368  -0.000014   0.002058  -0.045356   0.401196  -0.022604
    13  H   -0.040416   0.002230  -0.000118   0.001772  -0.025699   0.395657
    14  C   -0.000009   0.000374   0.002712  -0.085199   0.002598  -0.000042
    15  C   -0.000042   0.001246  -0.097175  -0.001951   0.000105  -0.000003
    16  H    0.000000  -0.000044   0.002404  -0.000047  -0.000000  -0.000000
    17  C    0.000000  -0.000001   0.000083   0.003350  -0.000057   0.000000
    18  H    0.000000  -0.000000   0.000007  -0.000073   0.000000  -0.000000
    19  H    0.000000  -0.000000   0.000003   0.000027  -0.000002  -0.000000
    20  H   -0.000004  -0.000021   0.002199  -0.047489  -0.000456   0.000066
    21  H    0.000008  -0.000007   0.001001  -0.053241  -0.002493  -0.000019
               7          8          9         10         11         12
     1  C   -0.000003   0.396131  -0.021925   0.001644   0.000120   0.001368
     2  C    0.001984  -0.025659   0.400741  -0.065454   0.001072  -0.000014
     3  C   -0.031257   0.001660  -0.046100   0.346211  -0.041771   0.002058
     4  C    0.000953  -0.000112   0.002012  -0.037288   0.256603  -0.045356
     5  C   -0.000027   0.002185  -0.000016   0.001078  -0.066479   0.401196
     6  C    0.000001  -0.040180   0.001325   0.000176   0.001807  -0.022604
     7  H    0.422273  -0.000000   0.001547   0.397432  -0.000008   0.000000
     8  H   -0.000000   0.429852  -0.000136  -0.000026   0.000001  -0.000026
     9  H    0.001547  -0.000136   0.424941   0.000608  -0.000040   0.000001
    10  C    0.397432  -0.000026   0.000608   5.161538   0.002345  -0.000041
    11  C   -0.000008   0.000001  -0.000040   0.002345   5.360142  -0.000579
    12  H    0.000000  -0.000026   0.000001  -0.000041  -0.000579   0.430015
    13  H   -0.000000  -0.001314  -0.000025   0.000000  -0.000029  -0.000129
    14  C    0.001889  -0.000000   0.000006  -0.093868   0.283437  -0.000015
    15  C   -0.034195   0.000000   0.000053   0.532783  -0.038844   0.000006
    16  H   -0.001316  -0.000000  -0.000002  -0.038659   0.001050  -0.000000
    17  C   -0.000044   0.000000  -0.000000   0.001753  -0.073379  -0.000002
    18  H   -0.000002  -0.000000   0.000000   0.000107   0.002301  -0.000000
    19  H    0.000000   0.000000   0.000000  -0.000060  -0.000840   0.000001
    20  H    0.000001  -0.000000   0.000000  -0.000259   0.397210   0.001317
    21  H    0.000001  -0.000000   0.000001  -0.000015   0.387448   0.000137
              13         14         15         16         17         18
     1  C   -0.040416  -0.000009  -0.000042   0.000000   0.000000   0.000000
     2  C    0.002230   0.000374   0.001246  -0.000044  -0.000001  -0.000000
     3  C   -0.000118   0.002712  -0.097175   0.002404   0.000083   0.000007
     4  C    0.001772  -0.085199  -0.001951  -0.000047   0.003350  -0.000073
     5  C   -0.025699   0.002598   0.000105  -0.000000  -0.000057   0.000000
     6  C    0.395657  -0.000042  -0.000003  -0.000000   0.000000  -0.000000
     7  H   -0.000000   0.001889  -0.034195  -0.001316  -0.000044  -0.000002
     8  H   -0.001314  -0.000000   0.000000  -0.000000   0.000000  -0.000000
     9  H   -0.000025   0.000006   0.000053  -0.000002  -0.000000   0.000000
    10  C    0.000000  -0.093868   0.532783  -0.038659   0.001753   0.000107
    11  C   -0.000029   0.283437  -0.038844   0.001050  -0.073379   0.002301
    12  H   -0.000129  -0.000015   0.000006  -0.000000  -0.000002  -0.000000
    13  H    0.430412   0.000000  -0.000000   0.000000  -0.000000   0.000000
    14  C    0.000000   5.273922   0.363628  -0.029161   0.525962  -0.056423
    15  C   -0.000000   0.363628   5.156913   0.398276  -0.072733   0.000474
    16  H    0.000000  -0.029161   0.398276   0.427132   0.000696   0.001367
    17  C   -0.000000   0.525962  -0.072733   0.000696   5.225793   0.400899
    18  H    0.000000  -0.056423   0.000474   0.001367   0.400899   0.455622
    19  H    0.000000  -0.056275   0.002147  -0.000001   0.401500  -0.017339
    20  H    0.000000  -0.042597   0.001996  -0.000017  -0.001274   0.000049
    21  H    0.000001  -0.051750   0.002003  -0.000020  -0.002128  -0.000061
              19         20         21
     1  C    0.000000  -0.000004   0.000008
     2  C   -0.000000  -0.000021  -0.000007
     3  C    0.000003   0.002199   0.001001
     4  C    0.000027  -0.047489  -0.053241
     5  C   -0.000002  -0.000456  -0.002493
     6  C   -0.000000   0.000066  -0.000019
     7  H    0.000000   0.000001   0.000001
     8  H    0.000000  -0.000000  -0.000000
     9  H    0.000000   0.000000   0.000001
    10  C   -0.000060  -0.000259  -0.000015
    11  C   -0.000840   0.397210   0.387448
    12  H    0.000001   0.001317   0.000137
    13  H    0.000000   0.000000   0.000001
    14  C   -0.056275  -0.042597  -0.051750
    15  C    0.002147   0.001996   0.002003
    16  H   -0.000001  -0.000017  -0.000020
    17  C    0.401500  -0.001274  -0.002128
    18  H   -0.017339   0.000049  -0.000061
    19  H    0.458791   0.001192   0.000252
    20  H    0.001192   0.464682  -0.019693
    21  H    0.000252  -0.019693   0.474890
 Mulliken charges:
               1
     1  C   -0.234167
     2  C   -0.236559
     3  C   -0.053743
     4  C   -0.011991
     5  C   -0.241266
     6  C   -0.230930
     7  H    0.240771
     8  H    0.237624
     9  H    0.237010
    10  C   -0.210005
    11  C   -0.471566
    12  H    0.232666
    13  H    0.237657
    14  C   -0.039191
    15  C   -0.214690
    16  H    0.238342
    17  C   -0.410418
    18  H    0.213073
    19  H    0.210604
    20  H    0.243096
    21  H    0.263685
 Sum of Mulliken charges =   0.00000
 Mulliken charges with hydrogens summed into heavy atoms:
               1
     1  C    0.003457
     2  C    0.000451
     3  C   -0.053743
     4  C   -0.011991
     5  C   -0.008599
     6  C    0.006726
    10  C    0.030766
    11  C    0.035214
    14  C   -0.039191
    15  C    0.023652
    17  C    0.013259
 Electronic spatial extent (au):  <R**2>=           1788.3830
 Charge=              0.0000 electrons
 Dipole moment (field-independent basis, Debye):
    X=             -0.0398    Y=             -0.1281    Z=              0.1855  Tot=              0.2290
 Quadrupole moment (field-independent basis, Debye-Ang):
   XX=            -59.3689   YY=            -56.4577   ZZ=            -73.2549
   XY=              0.0447   XZ=             -0.1994   YZ=             -0.1115
 Traceless Quadrupole moment (field-independent basis, Debye-Ang):
   XX=              3.6582   YY=              6.5694   ZZ=            -10.2277
   XY=              0.0447   XZ=             -0.1994   YZ=             -0.1115
 Octapole moment (field-independent basis, Debye-Ang**2):
  XXX=             11.7870  YYY=              2.4704  ZZZ=              2.9040  XYY=              0.0861
  XXY=              2.4392  XXZ=             -8.9713  XZZ=             -3.0396  YZZ=             -2.6567
  YYZ=             -0.1882  XYZ=              2.1187
 Hexadecapole moment (field-independent basis, Debye-Ang**3):
 XXXX=          -1618.1056 YYYY=           -560.3824 ZZZZ=           -101.1566 XXXY=            -15.5017
 XXXZ=             11.9239 YYYX=              0.6044 YYYZ=              5.5577 ZZZX=             -2.7676
 ZZZY=             -3.9901 XXYY=           -357.1466 XXZZ=           -350.7923 YYZZ=           -134.1408
 XXYZ=              1.2427 YYXZ=             -0.4606 ZZXY=              2.9181
 N-N= 5.305457654919D+02 E-N=-2.036640944224D+03  KE= 4.180712477393D+02
 Calling FoFJK, ICntrl=      2127 FMM=F ISym2X=0 I1Cent= 0 IOpClX= 0 NMat=1 NMatS=1 NMatT=0.
 ***** Axes restored to original set *****
 -------------------------------------------------------------------
 Center     Atomic                   Forces (Hartrees/Bohr)
 Number     Number              X              Y              Z
 -------------------------------------------------------------------
      1        6           0.054597574    0.016904302    0.013575491
      2        6          -0.061421991    0.012688616   -0.018320596
      3        6           0.001405359    0.031986407    0.004449962
      4        6           0.013890680   -0.035066340    0.001748002
      5        6          -0.014595688   -0.063416579    0.005265148
      6        6           0.041573064    0.040054943    0.004412854
      7        1          -0.003907452   -0.004812936   -0.003371095
      8        1           0.003670264   -0.003100871    0.000527215
      9        1          -0.002406696   -0.003334668   -0.002628670
     10        6          -0.015989383    0.049247609   -0.011259586
     11        6           0.021283044   -0.038434297   -0.002248805
     12        1          -0.004719225   -0.000769319    0.000890410
     13        1          -0.001005178    0.004510944   -0.000155613
     14        6           0.037401467    0.012410730   -0.011711604
     15        6          -0.049485559   -0.006201034   -0.000090839
     16        1           0.001359266    0.007148206    0.000952426
     17        6          -0.023114185   -0.038054113    0.015479089
     18        1           0.002307636    0.004953899   -0.000829598
     19        1           0.003587837    0.003381575   -0.002393074
     20        1          -0.001524062    0.006096920   -0.004741249
     21        1          -0.002906773    0.003806005    0.010450133
 -------------------------------------------------------------------
 Cartesian Forces:  Max     0.063416579 RMS     0.021601848

 GradGradGradGradGradGradGradGradGradGradGradGradGradGradGradGradGradGrad
 Berny optimization.
 FormGI is forming the generalized inverse of G from B-inverse, IUseBI=4.
 Internal  Forces:  Max     0.069179102 RMS     0.014056148
 Search for a local minimum.
 Step number   1 out of a maximum of  120
 All quantities printed in internal units (Hartrees-Bohrs-Radians)
 Mixed Optimization -- RFO/linear search
 Second derivative matrix not updated -- first step.
 ITU=  0
     Eigenvalues ---    0.00322   0.00568   0.00641   0.00848   0.01070
     Eigenvalues ---    0.01119   0.01188   0.01374   0.01387   0.01461
     Eigenvalues ---    0.01466   0.01794   0.02076   0.02128   0.02681
     Eigenvalues ---    0.02681   0.04396   0.06669   0.09503   0.10442
     Eigenvalues ---    0.15995   0.15999   0.15999   0.15999   0.16000
     Eigenvalues ---    0.16000   0.16000   0.16000   0.21998   0.22168
     Eigenvalues ---    0.22458   0.22899   0.23854   0.24550   0.24998
     Eigenvalues ---    0.27294   0.27696   0.27968   0.28126   0.28211
     Eigenvalues ---    0.28604   0.28837   0.37230   0.37230   0.37230
     Eigenvalues ---    0.37230   0.37230   0.37230   0.37230   0.37230
     Eigenvalues ---    0.37230   0.37230   0.51192   0.51375   0.52088
     Eigenvalues ---    0.53930   0.53939
 RFO step:  Lambda=-6.04931103D-02 EMin= 3.22201323D-03
 Linear search not attempted -- first point.
 Maximum step size (   0.300) exceeded in Quadratic search.
    -- Step size scaled by   0.727
 Iteration  1 RMS(Cart)=  0.04503932 RMS(Int)=  0.00031861
 Iteration  2 RMS(Cart)=  0.00051431 RMS(Int)=  0.00009674
 Iteration  3 RMS(Cart)=  0.00000015 RMS(Int)=  0.00009674
 Variable       Old X    -DE/DX   Delta X   Delta X   Delta X     New X
                                 (Linear)    (Quad)   (Total)
    R1        2.90992  -0.06918   0.00000  -0.14550  -0.14548   2.76444
    R2        2.56140  -0.01689   0.00000  -0.02069  -0.02068   2.54071
    R3        2.02201   0.00082   0.00000   0.00138   0.00138   2.02339
    R4        2.56025  -0.00939   0.00000  -0.01120  -0.01119   2.54906
    R5        2.02201   0.00103   0.00000   0.00174   0.00174   2.02374
    R6        2.89916  -0.06075   0.00000  -0.12514  -0.12519   2.77397
    R7        2.90059  -0.03587   0.00000  -0.07554  -0.07543   2.82516
    R8        2.56092  -0.01395   0.00000  -0.01687  -0.01689   2.54402
    R9        2.90915  -0.00849   0.00000  -0.01623  -0.01636   2.89279
   R10        2.91059  -0.06680   0.00000  -0.14085  -0.14086   2.76972
   R11        2.02201   0.00129   0.00000   0.00217   0.00217   2.02418
   R12        2.02201   0.00093   0.00000   0.00156   0.00156   2.02357
   R13        2.02201   0.00122   0.00000   0.00205   0.00205   2.02405
   R14        2.56301  -0.03675   0.00000  -0.04553  -0.04537   2.51764
   R15        2.91881  -0.01405   0.00000  -0.02914  -0.02928   2.88954
   R16        2.02201   0.00769   0.00000   0.01292   0.01292   2.03493
   R17        2.02201   0.01147   0.00000   0.01927   0.01927   2.04127
   R18        2.92136  -0.04557   0.00000  -0.09775  -0.09768   2.82367
   R19        2.56096  -0.03630   0.00000  -0.04400  -0.04400   2.51695
   R20        2.02201   0.00123   0.00000   0.00207   0.00207   2.02407
   R21        2.02201   0.00187   0.00000   0.00314   0.00314   2.02515
   R22        2.02201   0.00192   0.00000   0.00322   0.00322   2.02523
    A1        2.09303  -0.00068   0.00000  -0.00228  -0.00230   2.09074
    A2        2.09507  -0.00439   0.00000  -0.01445  -0.01444   2.08063
    A3        2.09508   0.00506   0.00000   0.01672   0.01673   2.11181
    A4        2.09195   0.00243   0.00000   0.00666   0.00665   2.09860
    A5        2.09556  -0.00535   0.00000  -0.01698  -0.01698   2.07859
    A6        2.09564   0.00292   0.00000   0.01029   0.01029   2.10594
    A7        2.09635  -0.00166   0.00000  -0.00221  -0.00228   2.09407
    A8        2.09652   0.00536   0.00000   0.01319   0.01317   2.10968
    A9        2.09022  -0.00370   0.00000  -0.01113  -0.01109   2.07913
   A10        2.09284  -0.00418   0.00000  -0.01025  -0.01023   2.08261
   A11        2.09816  -0.00513   0.00000  -0.01046  -0.01067   2.08749
   A12        2.09210   0.00930   0.00000   0.02060   0.02074   2.11284
   A13        2.09313   0.00395   0.00000   0.01006   0.00997   2.10310
   A14        2.09505   0.00227   0.00000   0.00898   0.00902   2.10407
   A15        2.09498  -0.00623   0.00000  -0.01905  -0.01901   2.07597
   A16        2.09359   0.00035   0.00000   0.00014   0.00009   2.09368
   A17        2.09480   0.00433   0.00000   0.01480   0.01483   2.10963
   A18        2.09479  -0.00469   0.00000  -0.01495  -0.01492   2.07986
   A19        2.09419  -0.01243   0.00000  -0.03378  -0.03393   2.06026
   A20        2.09467   0.01314   0.00000   0.02875   0.02901   2.12368
   A21        2.09409  -0.00074   0.00000   0.00480   0.00463   2.09872
   A22        1.94139   0.00934   0.00000   0.02830   0.02797   1.96937
   A23        1.90989  -0.00101   0.00000  -0.00158  -0.00149   1.90840
   A24        1.89376  -0.00356   0.00000  -0.00908  -0.00901   1.88474
   A25        1.91414  -0.00434   0.00000  -0.01124  -0.01118   1.90296
   A26        1.88950  -0.00113   0.00000  -0.00359  -0.00355   1.88594
   A27        1.91487   0.00068   0.00000  -0.00302  -0.00312   1.91176
   A28        2.12298  -0.01959   0.00000  -0.04787  -0.04792   2.07506
   A29        2.07986   0.01412   0.00000   0.03403   0.03404   2.11390
   A30        2.08027   0.00546   0.00000   0.01373   0.01373   2.09400
   A31        2.11744   0.00555   0.00000   0.00991   0.01016   2.12760
   A32        2.08265   0.00414   0.00000   0.01784   0.01772   2.10037
   A33        2.08304  -0.00970   0.00000  -0.02777  -0.02790   2.05514
   A34        2.09440   0.00347   0.00000   0.01146   0.01146   2.10585
   A35        2.09440   0.00338   0.00000   0.01116   0.01116   2.10555
   A36        2.09440  -0.00686   0.00000  -0.02261  -0.02261   2.07178
    D1       -0.00078   0.00025   0.00000   0.00293   0.00288   0.00210
    D2       -3.13429   0.00070   0.00000   0.00641   0.00632  -3.12797
    D3        3.13702  -0.00000   0.00000   0.00049   0.00047   3.13750
    D4        0.00351   0.00044   0.00000   0.00397   0.00392   0.00743
    D5       -0.04032   0.00067   0.00000   0.00542   0.00537  -0.03496
    D6        3.10502   0.00081   0.00000   0.00598   0.00596   3.11098
    D7        3.10506   0.00094   0.00000   0.00793   0.00788   3.11294
    D8       -0.03278   0.00109   0.00000   0.00848   0.00847  -0.02431
    D9        0.07873  -0.00148   0.00000  -0.01625  -0.01631   0.06242
   D10       -3.04784  -0.00068   0.00000  -0.00462  -0.00463  -3.05247
   D11       -3.07094  -0.00196   0.00000  -0.01985  -0.01994  -3.09088
   D12        0.08567  -0.00117   0.00000  -0.00822  -0.00826   0.07741
   D13       -0.12036   0.00288   0.00000   0.02477   0.02454  -0.09582
   D14        3.00714   0.00183   0.00000   0.01527   0.01515   3.02230
   D15        3.00626   0.00217   0.00000   0.01339   0.01327   3.01954
   D16       -0.14942   0.00112   0.00000   0.00389   0.00388  -0.14553
   D17       -0.13079   0.00011   0.00000   0.00181   0.00160  -0.12919
   D18        2.98753  -0.00083   0.00000  -0.00978  -0.00987   2.97766
   D19        3.02577   0.00089   0.00000   0.01332   0.01311   3.03888
   D20       -0.13909  -0.00006   0.00000   0.00173   0.00164  -0.13746
   D21        0.07891  -0.00161   0.00000  -0.01562  -0.01565   0.06326
   D22       -3.07077  -0.00191   0.00000  -0.01744  -0.01749  -3.08826
   D23       -3.04864  -0.00045   0.00000  -0.00590  -0.00586  -3.05450
   D24        0.08486  -0.00075   0.00000  -0.00772  -0.00770   0.07716
   D25        0.42221   0.00199   0.00000   0.00816   0.00809   0.43030
   D26        2.53987   0.00193   0.00000   0.01138   0.01137   2.55125
   D27       -1.65440   0.00004   0.00000   0.00137   0.00143  -1.65296
   D28       -2.73347   0.00084   0.00000  -0.00159  -0.00172  -2.73519
   D29       -0.61580   0.00077   0.00000   0.00163   0.00156  -0.61424
   D30        1.47311  -0.00112   0.00000  -0.00837  -0.00838   1.46473
   D31       -0.00117   0.00027   0.00000   0.00193   0.00193   0.00077
   D32        3.13667   0.00015   0.00000   0.00143   0.00142   3.13809
   D33       -3.13467   0.00053   0.00000   0.00362   0.00362  -3.13106
   D34        0.00317   0.00041   0.00000   0.00312   0.00310   0.00627
   D35        0.10370  -0.00195   0.00000  -0.01090  -0.01102   0.09268
   D36       -3.02664  -0.00140   0.00000  -0.00882  -0.00886  -3.03550
   D37       -3.06116  -0.00305   0.00000  -0.02301  -0.02325  -3.08441
   D38        0.09169  -0.00250   0.00000  -0.02093  -0.02109   0.07060
   D39       -0.46753   0.00025   0.00000  -0.00657  -0.00657  -0.47410
   D40        2.68665   0.00087   0.00000   0.00355   0.00345   2.69010
   D41       -2.58271  -0.00166   0.00000  -0.01552  -0.01542  -2.59813
   D42        0.57147  -0.00104   0.00000  -0.00541  -0.00540   0.56607
   D43        1.61162   0.00072   0.00000  -0.00315  -0.00316   1.60846
   D44       -1.51738   0.00134   0.00000   0.00696   0.00686  -1.51052
   D45        0.22136   0.00090   0.00000   0.01050   0.01032   0.23168
   D46       -2.93149   0.00044   0.00000   0.00871   0.00850  -2.92300
   D47       -2.93283   0.00034   0.00000   0.00052   0.00057  -2.93226
   D48        0.19751  -0.00012   0.00000  -0.00127  -0.00125   0.19625
   D49        3.13545  -0.00125   0.00000  -0.01227  -0.01239   3.12306
   D50       -0.00614  -0.00113   0.00000  -0.01127  -0.01139  -0.01753
   D51        0.00614  -0.00046   0.00000  -0.00195  -0.00182   0.00432
   D52       -3.13545  -0.00034   0.00000  -0.00095  -0.00082  -3.13628
         Item               Value     Threshold  Converged?
 Maximum Force            0.069179     0.000450     NO 
 RMS     Force            0.014056     0.000300     NO 
 Maximum Displacement     0.150165     0.001800     NO 
 RMS     Displacement     0.045223     0.001200     NO 
 Predicted change in Energy=-3.087491D-02
 GradGradGradGradGradGradGradGradGradGradGradGradGradGradGradGradGradGrad

                          Input orientation:                          
 ---------------------------------------------------------------------
 Center     Atomic      Atomic             Coordinates (Angstroms)
 Number     Number       Type             X           Y           Z
 ---------------------------------------------------------------------
      1          6           0       -4.096897   -3.136752    2.177750
      2          6           0       -2.679346   -3.106063    2.537769
      3          6           0       -2.001039   -1.940150    2.528077
      4          6           0       -2.703106   -0.685488    2.231911
      5          6           0       -3.997278   -0.725285    1.863270
      6          6           0       -4.723562   -1.998020    1.833908
      7          1           0       -0.050101   -2.814758    3.090979
      8          1           0       -4.618342   -4.071880    2.187341
      9          1           0       -2.188142   -4.021519    2.797631
     10          6           0       -0.528235   -1.907261    2.782668
     11          6           0       -1.963742    0.647107    2.376392
     12          1           0       -4.515089    0.173359    1.595552
     13          1           0       -5.753369   -2.004587    1.540447
     14          6           0       -0.447827    0.502774    2.237679
     15          6           0        0.189259   -0.800088    2.597363
     16          1           0        1.255877   -0.824351    2.692123
     17          6           0        0.306114    1.521871    1.829008
     18          1           0        1.369810    1.417651    1.750603
     19          1           0       -0.139178    2.462476    1.573023
     20          1           0       -2.320697    1.335856    1.629542
     21          1           0       -2.173996    1.040283    3.360275
 ---------------------------------------------------------------------
                    Distance matrix (angstroms):
                    1          2          3          4          5
     1  C    0.000000
     2  C    1.462876   0.000000
     3  C    2.438689   1.348906   0.000000
     4  C    2.820334   2.439938   1.467919   0.000000
     5  C    2.433926   2.803569   2.429575   1.346240   0.000000
     6  C    1.344488   2.429403   2.810222   2.442005   1.465675
     7  H    4.161036   2.702559   2.210873   3.508593   4.631778
     8  H    1.070729   2.194381   3.392735   3.890728   3.419129
     9  H    2.193265   1.070919   2.107075   3.422620   3.874424
    10  C    3.822685   2.474748   1.495008   2.554628   3.778441
    11  C    4.348264   3.824189   2.591968   1.530799   2.506397
    12  H    3.386838   3.874576   3.414230   2.103771   1.071150
    13  H    2.105197   3.414311   3.880663   3.394444   2.196516
    14  C    5.154169   4.253638   2.909412   2.549174   3.774509
    15  C    4.899715   3.681028   2.470212   2.917613   4.251068
    16  H    5.853544   4.551485   3.446654   3.988061   5.319065
    17  C    6.419572   5.552755   4.218678   3.753688   4.854902
    18  H    7.128108   6.122032   4.820987   4.609067   5.780182
    19  H    6.883356   6.196113   4.874605   4.113094   5.013083
    20  H    4.843515   4.547983   3.412002   2.143576   2.667181
    21  H    4.748004   4.257239   3.099266   2.128720   2.946627
                    6          7          8          9         10
     6  C    0.000000
     7  H    4.908006   0.000000
     8  H    2.106391   4.823458   0.000000
     9  H    3.384031   2.472558   2.506165   0.000000
    10  C    4.302225   1.071083   4.665722   2.688048   0.000000
    11  C    3.861035   4.019598   5.417701   4.692959   2.958131
    12  H    2.194347   5.576850   4.287532   4.945369   4.651153
    13  H    1.070825   5.965550   2.445498   4.284784   5.371648
    14  C    4.969800   3.448525   6.190573   4.879700   2.472194
    15  C    5.114070   2.088024   5.829731   4.008710   1.332279
    16  H    6.153675   2.413791   6.731100   4.700456   2.089007
    17  C    6.138998   4.530542   7.461148   6.155381   3.655756
    18  H    6.985909   4.661120   8.135334   6.583301   3.965195
    19  H    6.401614   5.491932   7.945949   6.909422   4.550737
    20  H    4.114638   4.951666   5.902027   5.484840   3.880776
    21  H    4.249866   4.409625   5.786607   5.092996   3.424934
                   11         12         13         14         15
    11  C    0.000000
    12  H    2.709893   0.000000
    13  H    4.700166   2.505957   0.000000
    14  C    1.529076   4.130795   5.909465   0.000000
    15  C    2.603578   4.907353   6.154894   1.494222   0.000000
    16  H    3.553987   5.958351   7.200614   2.206895   1.071094
    17  C    2.493409   5.011685   7.016873   1.331915   2.448575
    18  H    3.478206   6.017005   7.905413   2.092378   2.651239
    19  H    2.696294   4.938539   7.174598   2.092239   3.435326
    20  H    1.076836   2.483528   4.790588   2.138107   3.434940
    21  H    1.080195   3.057208   5.039337   2.128098   3.090951
                   16         17         18         19         20
    16  H    0.000000
    17  C    2.674280   0.000000
    18  H    2.434340   1.071661   0.000000
    19  H    3.741897   1.071704   1.843974   0.000000
    20  H    4.311317   2.640933   3.693398   2.455910   0.000000
    21  H    3.960722   2.954260   3.910500   3.058985   1.761908
                   21
    21  H    0.000000
 Stoichiometry    C11H10
 Framework group  C1[X(C11H10)]
 Deg. of freedom    57
 Full point group                 C1      NOp   1
 Largest Abelian subgroup         C1      NOp   1
 Largest concise Abelian subgroup C1      NOp   1
                         Standard orientation:                         
 ---------------------------------------------------------------------
 Center     Atomic      Atomic             Coordinates (Angstroms)
 Number     Number       Type             X           Y           Z
 ---------------------------------------------------------------------
      1          6           0        2.929497    0.382062   -0.134406
      2          6           0        1.788632    1.288574   -0.005298
      3          6           0        0.536132    0.795846    0.084215
      4          6           0        0.320396   -0.655370    0.131325
      5          6           0        1.369884   -1.483458   -0.027441
      6          6           0        2.726642   -0.946655   -0.166202
      7          1           0       -0.470000    2.762874    0.164556
      8          1           0        3.916253    0.791148   -0.208037
      9          1           0        1.961895    2.345322    0.006188
     10          6           0       -0.647847    1.708483    0.102525
     11          6           0       -1.085457   -1.202900    0.390423
     12          1           0        1.228060   -2.545027   -0.045299
     13          1           0        3.546278   -1.624872   -0.288199
     14          6           0       -2.187648   -0.222255   -0.011553
     15          6           0       -1.892092    1.242354    0.004820
     16          1           0       -2.718425    1.918847   -0.077487
     17          6           0       -3.402610   -0.652281   -0.347621
     18          1           0       -4.174499    0.042588   -0.611824
     19          1           0       -3.627584   -1.700052   -0.358194
     20          1           0       -1.216633   -2.121694   -0.155640
     21          1           0       -1.178519   -1.395543    1.449219
 ---------------------------------------------------------------------
 Rotational constants (GHZ):           2.6401659           0.8447838           0.6516628
 Standard basis: 3-21G (6D, 7F)
 There are   119 symmetry adapted cartesian basis functions of A   symmetry.
 There are   119 symmetry adapted basis functions of A   symmetry.
   119 basis functions,   195 primitive gaussians,   119 cartesian basis functions
    38 alpha electrons       38 beta electrons
       nuclear repulsion energy       540.3088086574 Hartrees.
 NAtoms=   21 NActive=   21 NUniq=   21 SFac= 1.00D+00 NAtFMM=   60 NAOKFM=F Big=F
 Integral buffers will be    131072 words long.
 Raffenetti 1 integral format.
 Two-electron integral symmetry is turned on.
 One-electron integrals computed using PRISM.
 NBasis=   119 RedAO= T EigKep=  1.39D-03  NBF=   119
 NBsUse=   119 1.00D-06 EigRej= -1.00D+00 NBFU=   119
 Initial guess from the checkpoint file:  "Meth_napthalene_isomer.chk"
 B after Tr=    -0.000000   -0.000000    0.000000
         Rot=    0.999999   -0.000539   -0.000496    0.001073 Ang=  -0.15 deg.
 ExpMin= 1.83D-01 ExpMax= 1.72D+02 ExpMxC= 1.72D+02 IAcc=3 IRadAn=         5 AccDes= 0.00D+00
 Harris functional with IExCor=  205 and IRadAn=       5 diagonalized for initial guess.
 HarFok:  IExCor=  205 AccDes= 0.00D+00 IRadAn=         5 IDoV= 1 UseB2=F ITyADJ=14
 ICtDFT=  3500011 ScaDFX=  1.000000  1.000000  1.000000  1.000000
 FoFCou: FMM=F IPFlag=           0 FMFlag=      100000 FMFlg1=           0
         NFxFlg=           0 DoJE=T BraDBF=F KetDBF=T FulRan=T
         wScrn=  0.000000 ICntrl=       500 IOpCl=  0 I1Cent=   200000004 NGrid=           0
         NMat0=    1 NMatS0=      1 NMatT0=    0 NMatD0=    1 NMtDS0=    0 NMtDT0=    0
 Petite list used in FoFCou.
 Keep R1 ints in memory in canonical form, NReq=26359667.
 Requested convergence on RMS density matrix=1.00D-08 within 128 cycles.
 Requested convergence on MAX density matrix=1.00D-06.
 Requested convergence on             energy=1.00D-06.
 No special actions if energy rises.
 SCF Done:  E(RHF) =  -419.987325987     A.U. after   13 cycles
            NFock= 13  Conv=0.61D-08     -V/T= 2.0026
 Calling FoFJK, ICntrl=      2127 FMM=F ISym2X=0 I1Cent= 0 IOpClX= 0 NMat=1 NMatS=1 NMatT=0.
 ***** Axes restored to original set *****
 -------------------------------------------------------------------
 Center     Atomic                   Forces (Hartrees/Bohr)
 Number     Number              X              Y              Z
 -------------------------------------------------------------------
      1        6           0.040291795   -0.008037290    0.013083062
      2        6          -0.044834809   -0.008405942   -0.011051143
      3        6           0.006901529    0.033581708    0.003323476
      4        6           0.025241646   -0.020957926    0.004276736
      5        6          -0.026623347   -0.035242377   -0.001398175
      6        6           0.013490318    0.040195528   -0.002995281
      7        1          -0.001211101   -0.002995507   -0.002507879
      8        1           0.000827441   -0.001210387   -0.000212725
      9        1           0.000460561   -0.001347257   -0.001375174
     10        6          -0.009673510    0.015307658   -0.002187858
     11        6           0.009542561   -0.017846465   -0.002600574
     12        1          -0.001728487    0.000667409    0.000789904
     13        1          -0.000744066    0.001416469    0.000113469
     14        6           0.015714524    0.001508735   -0.005413588
     15        6          -0.019006518    0.001350733    0.000175669
     16        1           0.000937860    0.002444334    0.001256245
     17        6          -0.010065601   -0.012030581    0.005423232
     18        1           0.001262749    0.003418437   -0.000258359
     19        1           0.002979810    0.002198914   -0.001937061
     20        1          -0.002032768    0.003825698   -0.000460152
     21        1          -0.001730585    0.002158110    0.003956179
 -------------------------------------------------------------------
 Cartesian Forces:  Max     0.044834809 RMS     0.013731983

 GradGradGradGradGradGradGradGradGradGradGradGradGradGradGradGradGradGrad
 Berny optimization.
 Using GEDIIS/GDIIS optimizer.
 FormGI is forming the generalized inverse of G from B-inverse, IUseBI=4.
 Internal  Forces:  Max     0.037531808 RMS     0.006941226
 Search for a local minimum.
 Step number   2 out of a maximum of  120
 All quantities printed in internal units (Hartrees-Bohrs-Radians)
 Mixed Optimization -- RFO/linear search
 Update second derivatives using D2CorX and points    1    2
 DE= -3.28D-02 DEPred=-3.09D-02 R= 1.06D+00
 TightC=F SS=  1.41D+00  RLast= 3.09D-01 DXNew= 5.0454D-01 9.2583D-01
 Trust test= 1.06D+00 RLast= 3.09D-01 DXMaxT set to 5.05D-01
 ITU=  1  0
 Use linear search instead of GDIIS.
     Eigenvalues ---    0.00329   0.00568   0.00645   0.00869   0.01077
     Eigenvalues ---    0.01149   0.01208   0.01395   0.01407   0.01480
     Eigenvalues ---    0.01488   0.01821   0.02079   0.02140   0.02680
     Eigenvalues ---    0.02681   0.04241   0.06588   0.09757   0.10677
     Eigenvalues ---    0.15792   0.15992   0.15999   0.15999   0.15999
     Eigenvalues ---    0.16000   0.16000   0.16220   0.20347   0.21999
     Eigenvalues ---    0.22187   0.22485   0.23207   0.23992   0.24608
     Eigenvalues ---    0.25155   0.27499   0.27666   0.27943   0.28150
     Eigenvalues ---    0.28423   0.29216   0.37186   0.37230   0.37230
     Eigenvalues ---    0.37230   0.37230   0.37230   0.37230   0.37230
     Eigenvalues ---    0.37230   0.37250   0.51103   0.51225   0.51722
     Eigenvalues ---    0.53564   0.65186
 RFO step:  Lambda=-7.02648742D-03 EMin= 3.28531732D-03
 Quartic linear search produced a step of  0.66527.
 Iteration  1 RMS(Cart)=  0.03940285 RMS(Int)=  0.00056899
 Iteration  2 RMS(Cart)=  0.00067799 RMS(Int)=  0.00025023
 Iteration  3 RMS(Cart)=  0.00000038 RMS(Int)=  0.00025023
 Variable       Old X    -DE/DX   Delta X   Delta X   Delta X     New X
                                 (Linear)    (Quad)   (Total)
    R1        2.76444  -0.03753  -0.09678  -0.05640  -0.15318   2.61126
    R2        2.54071   0.01080  -0.01376   0.05176   0.03803   2.57874
    R3        2.02339   0.00065   0.00092   0.00147   0.00239   2.02578
    R4        2.54906   0.01259  -0.00744   0.04856   0.04110   2.59017
    R5        2.02374   0.00103   0.00116   0.00276   0.00392   2.02766
    R6        2.77397  -0.03170  -0.08329  -0.04298  -0.12636   2.64761
    R7        2.82516  -0.01494  -0.05018  -0.00299  -0.05319   2.77197
    R8        2.54402   0.01049  -0.01124   0.04735   0.03612   2.58014
    R9        2.89279  -0.00346  -0.01088  -0.00171  -0.01259   2.88020
   R10        2.76972  -0.03693  -0.09371  -0.05838  -0.15207   2.61766
   R11        2.02418   0.00120   0.00145   0.00307   0.00451   2.02869
   R12        2.02357   0.00068   0.00104   0.00140   0.00243   2.02600
   R13        2.02405   0.00128   0.00136   0.00353   0.00489   2.02895
   R14        2.51764  -0.00934  -0.03018   0.01349  -0.01657   2.50107
   R15        2.88954  -0.00467  -0.01948   0.00445  -0.01515   2.87438
   R16        2.03493   0.00344   0.00859   0.00214   0.01073   2.04565
   R17        2.04127   0.00473   0.01282   0.00142   0.01423   2.05551
   R18        2.82367  -0.01679  -0.06499   0.00902  -0.05586   2.76781
   R19        2.51695  -0.00919  -0.02927   0.01258  -0.01669   2.50026
   R20        2.02407   0.00099   0.00138   0.00226   0.00364   2.02771
   R21        2.02515   0.00094   0.00209   0.00097   0.00306   2.02821
   R22        2.02523   0.00115   0.00214   0.00183   0.00397   2.02920
    A1        2.09074  -0.00036  -0.00153   0.00002  -0.00172   2.08902
    A2        2.08063  -0.00102  -0.00961   0.00873  -0.00079   2.07983
    A3        2.11181   0.00138   0.01113  -0.00869   0.00252   2.11433
    A4        2.09860   0.00191   0.00443   0.00672   0.01087   2.10947
    A5        2.07859  -0.00143  -0.01129   0.01012  -0.00109   2.07750
    A6        2.10594  -0.00049   0.00685  -0.01666  -0.00973   2.09621
    A7        2.09407  -0.00193  -0.00152  -0.00829  -0.01000   2.08406
    A8        2.10968   0.00243   0.00876   0.00187   0.01084   2.12052
    A9        2.07913  -0.00051  -0.00738   0.00642  -0.00103   2.07810
   A10        2.08261  -0.00124  -0.00681   0.00381  -0.00323   2.07937
   A11        2.08749  -0.00077  -0.00710   0.00628  -0.00100   2.08649
   A12        2.11284   0.00199   0.01380  -0.01046   0.00348   2.11632
   A13        2.10310   0.00187   0.00664   0.00192   0.00833   2.11143
   A14        2.10407   0.00003   0.00600  -0.00993  -0.00385   2.10022
   A15        2.07597  -0.00190  -0.01264   0.00813  -0.00444   2.07153
   A16        2.09368  -0.00010   0.00006  -0.00115  -0.00129   2.09239
   A17        2.10963   0.00143   0.00987  -0.00543   0.00451   2.11414
   A18        2.07986  -0.00133  -0.00993   0.00662  -0.00323   2.07664
   A19        2.06026  -0.00488  -0.02257   0.00195  -0.02069   2.03957
   A20        2.12368   0.00467   0.01930  -0.00345   0.01590   2.13958
   A21        2.09872   0.00019   0.00308   0.00122   0.00418   2.10290
   A22        1.96937   0.00482   0.01861   0.00738   0.02537   1.99474
   A23        1.90840  -0.00057  -0.00099   0.00433   0.00278   1.91118
   A24        1.88474  -0.00191  -0.00600  -0.00762  -0.01331   1.87143
   A25        1.90296  -0.00120  -0.00744   0.02134   0.01369   1.91664
   A26        1.88594  -0.00053  -0.00236  -0.00569  -0.00787   1.87808
   A27        1.91176  -0.00072  -0.00207  -0.02129  -0.02346   1.88829
   A28        2.07506  -0.01043  -0.03188  -0.01787  -0.04976   2.02530
   A29        2.11390   0.00468   0.02264  -0.00597   0.01661   2.13051
   A30        2.09400   0.00574   0.00914   0.02358   0.03260   2.12661
   A31        2.12760   0.00210   0.00676   0.00079   0.00769   2.13528
   A32        2.10037   0.00113   0.01179  -0.00909   0.00256   2.10293
   A33        2.05514  -0.00323  -0.01856   0.00809  -0.01064   2.04450
   A34        2.10585   0.00195   0.00762   0.00418   0.01180   2.11765
   A35        2.10555   0.00300   0.00742   0.01496   0.02238   2.12794
   A36        2.07178  -0.00495  -0.01504  -0.01914  -0.03419   2.03760
    D1        0.00210   0.00013   0.00191  -0.00366  -0.00189   0.00021
    D2       -3.12797   0.00021   0.00421  -0.02100  -0.01706   3.13816
    D3        3.13750   0.00013   0.00032   0.00690   0.00711  -3.13858
    D4        0.00743   0.00020   0.00261  -0.01044  -0.00806  -0.00063
    D5       -0.03496   0.00066   0.00357   0.01708   0.02052  -0.01443
    D6        3.11098   0.00065   0.00396   0.00778   0.01156   3.12254
    D7        3.11294   0.00067   0.00524   0.00626   0.01136   3.12430
    D8       -0.02431   0.00067   0.00563  -0.00304   0.00240  -0.02191
    D9        0.06242  -0.00136  -0.01085  -0.02450  -0.03557   0.02685
   D10       -3.05247  -0.00087  -0.00308  -0.02454  -0.02793  -3.08040
   D11       -3.09088  -0.00145  -0.01326  -0.00671  -0.02017  -3.11105
   D12        0.07741  -0.00096  -0.00549  -0.00674  -0.01253   0.06488
   D13       -0.09582   0.00238   0.01633   0.04052   0.05622  -0.03960
   D14        3.02230   0.00146   0.01008   0.02276   0.03236   3.05465
   D15        3.01954   0.00195   0.00883   0.04049   0.04896   3.06849
   D16       -0.14553   0.00102   0.00258   0.02273   0.02509  -0.12044
   D17       -0.12919   0.00012   0.00107   0.00305   0.00365  -0.12554
   D18        2.97766  -0.00055  -0.00657  -0.00606  -0.01272   2.96494
   D19        3.03888   0.00063   0.00872   0.00323   0.01140   3.05028
   D20       -0.13746  -0.00004   0.00109  -0.00588  -0.00497  -0.14243
   D21        0.06326  -0.00140  -0.01041  -0.02661  -0.03734   0.02592
   D22       -3.08826  -0.00141  -0.01164  -0.01173  -0.02362  -3.11187
   D23       -3.05450  -0.00042  -0.00390  -0.00881  -0.01299  -3.06750
   D24        0.07716  -0.00042  -0.00512   0.00607   0.00073   0.07789
   D25        0.43030   0.00099   0.00538  -0.00985  -0.00459   0.42571
   D26        2.55125   0.00229   0.00757   0.02538   0.03289   2.58414
   D27       -1.65296  -0.00002   0.00095  -0.00220  -0.00117  -1.65414
   D28       -2.73519   0.00000  -0.00115  -0.02773  -0.02907  -2.76426
   D29       -0.61424   0.00130   0.00104   0.00750   0.00842  -0.60582
   D30        1.46473  -0.00101  -0.00557  -0.02008  -0.02565   1.43909
   D31        0.00077   0.00022   0.00129  -0.00080   0.00032   0.00108
   D32        3.13809   0.00023   0.00094   0.00831   0.00911  -3.13599
   D33       -3.13106   0.00022   0.00241  -0.01535  -0.01319   3.13894
   D34        0.00627   0.00023   0.00206  -0.00623  -0.00440   0.00187
   D35        0.09268  -0.00172  -0.00733  -0.02143  -0.02932   0.06336
   D36       -3.03550  -0.00109  -0.00589  -0.00224  -0.00857  -3.04406
   D37       -3.08441  -0.00249  -0.01547  -0.03073  -0.04674  -3.13115
   D38        0.07060  -0.00186  -0.01403  -0.01153  -0.02599   0.04461
   D39       -0.47410   0.00022  -0.00437  -0.00926  -0.01356  -0.48766
   D40        2.69010   0.00069   0.00229   0.00335   0.00524   2.69534
   D41       -2.59813  -0.00142  -0.01026  -0.03479  -0.04503  -2.64315
   D42        0.56607  -0.00094  -0.00359  -0.02218  -0.02623   0.53985
   D43        1.60846   0.00043  -0.00210  -0.01803  -0.02003   1.58843
   D44       -1.51052   0.00090   0.00456  -0.00542  -0.00123  -1.51175
   D45        0.23168   0.00083   0.00687   0.02682   0.03301   0.26469
   D46       -2.92300   0.00025   0.00565   0.00798   0.01300  -2.91000
   D47       -2.93226   0.00035   0.00038   0.01397   0.01404  -2.91821
   D48        0.19625  -0.00023  -0.00083  -0.00487  -0.00596   0.19029
   D49        3.12306  -0.00115  -0.00825  -0.02035  -0.02891   3.09416
   D50       -0.01753  -0.00110  -0.00758  -0.02146  -0.02935  -0.04688
   D51        0.00432  -0.00046  -0.00121  -0.00706  -0.00796  -0.00364
   D52       -3.13628  -0.00041  -0.00055  -0.00817  -0.00840   3.13851
         Item               Value     Threshold  Converged?
 Maximum Force            0.037532     0.000450     NO 
 RMS     Force            0.006941     0.000300     NO 
 Maximum Displacement     0.112612     0.001800     NO 
 RMS     Displacement     0.039581     0.001200     NO 
 Predicted change in Energy=-1.307062D-02
 GradGradGradGradGradGradGradGradGradGradGradGradGradGradGradGradGradGrad

                          Input orientation:                          
 ---------------------------------------------------------------------
 Center     Atomic      Atomic             Coordinates (Angstroms)
 Number     Number       Type             X           Y           Z
 ---------------------------------------------------------------------
      1          6           0       -4.047699   -3.126222    2.172281
      2          6           0       -2.705904   -3.096017    2.501060
      3          6           0       -2.012426   -1.913851    2.517509
      4          6           0       -2.683458   -0.718536    2.227880
      5          6           0       -4.005428   -0.763416    1.889395
      6          6           0       -4.693223   -1.965423    1.859223
      7          1           0       -0.109693   -2.795132    3.092394
      8          1           0       -4.564174   -4.065596    2.170715
      9          1           0       -2.209613   -4.014584    2.748538
     10          6           0       -0.571666   -1.874261    2.790150
     11          6           0       -1.944599    0.608336    2.356257
     12          1           0       -4.531434    0.137819    1.637252
     13          1           0       -5.729393   -1.964271    1.583948
     14          6           0       -0.433406    0.498476    2.222685
     15          6           0        0.155990   -0.781671    2.621517
     16          1           0        1.221423   -0.812694    2.745052
     17          6           0        0.311592    1.513739    1.816773
     18          1           0        1.380993    1.436789    1.767871
     19          1           0       -0.119408    2.451865    1.521445
     20          1           0       -2.327824    1.307684    1.624214
     21          1           0       -2.159536    1.002144    3.347150
 ---------------------------------------------------------------------
                    Distance matrix (angstroms):
                    1          2          3          4          5
     1  C    0.000000
     2  C    1.381817   0.000000
     3  C    2.394026   1.370656   0.000000
     4  C    2.767886   2.393229   1.401052   0.000000
     5  C    2.380055   2.739329   2.385390   1.365353   0.000000
     6  C    1.364610   2.374791   2.760919   2.393697   1.385205
     7  H    4.057600   2.679649   2.174290   3.418172   4.555417
     8  H    1.071995   2.121881   3.355844   3.839683   3.360912
     9  H    2.121277   1.072994   2.122577   3.370392   3.812239
    10  C    3.745927   2.476133   1.466864   2.472148   3.719685
    11  C    4.289965   3.784545   2.528246   1.524134   2.519262
    12  H    3.342786   3.812665   3.365948   2.120660   1.073538
    13  H    2.127054   3.356103   3.832744   3.353241   2.123065
    14  C    5.118992   4.261703   2.898197   2.558101   3.802998
    15  C    4.834225   3.682546   2.448403   2.867299   4.225368
    16  H    5.783088   4.549395   3.423755   3.940105   5.296654
    17  C    6.376443   5.551880   4.200055   3.757976   4.881328
    18  H    7.103190   6.147083   4.827426   4.623506   5.819726
    19  H    6.853474   6.199081   4.861598   4.138218   5.057130
    20  H    4.787260   4.506038   3.357937   2.143935   2.678457
    21  H    4.689229   4.220107   3.035288   2.118489   2.941014
                    6          7          8          9         10
     6  C    0.000000
     7  H    4.818493   0.000000
     8  H    2.127065   4.722920   0.000000
     9  H    3.340398   2.452542   2.424962   0.000000
    10  C    4.226366   1.073672   4.596278   2.695474   0.000000
    11  C    3.798185   3.936034   5.361179   4.647096   2.869930
    12  H    2.121102   5.501948   4.237257   4.885515   4.588835
    13  H    1.072113   5.877650   2.473377   4.236614   5.297657
    14  C    4.934464   3.421847   6.156029   4.878436   2.443566
    15  C    5.049478   2.084787   5.767784   4.007984   1.323508
    16  H    6.090690   2.413001   6.662159   4.692985   2.084256
    17  C    6.095452   4.513430   7.418041   6.147113   3.634027
    18  H    6.962722   4.678211   8.110705   6.600881   3.977561
    19  H    6.367598   5.477130   7.915478   6.905771   4.530951
    20  H    4.045190   4.889658   5.845687   5.441011   3.816841
    21  H    4.176116   4.322737   5.731340   5.052563   3.332460
                   11         12         13         14         15
    11  C    0.000000
    12  H    2.725816   0.000000
    13  H    4.641060   2.420068   0.000000
    14  C    1.521056   4.155314   5.875422   0.000000
    15  C    2.532776   4.877109   6.092030   1.464661   0.000000
    16  H    3.492016   5.935154   7.140597   2.174970   1.073019
    17  C    2.490219   5.037885   6.974543   1.323082   2.437361
    18  H    3.477369   6.054848   7.884075   2.092686   2.674119
    19  H    2.725221   4.983392   7.139894   2.099062   3.426625
    20  H    1.082514   2.494925   4.719956   2.145181   3.395490
    21  H    1.087727   3.049050   4.965116   2.120761   3.011677
                   16         17         18         19         20
    16  H    0.000000
    17  C    2.664917   0.000000
    18  H    2.457747   1.073281   0.000000
    19  H    3.735290   1.073807   1.828199   0.000000
    20  H    4.283624   2.654440   3.713843   2.489340   0.000000
    21  H    3.884204   2.951314   3.901075   3.097904   1.757892
                   21
    21  H    0.000000
 Stoichiometry    C11H10
 Framework group  C1[X(C11H10)]
 Deg. of freedom    57
 Full point group                 C1      NOp   1
 Largest Abelian subgroup         C1      NOp   1
 Largest concise Abelian subgroup C1      NOp   1
                         Standard orientation:                         
 ---------------------------------------------------------------------
 Center     Atomic      Atomic             Coordinates (Angstroms)
 Number     Number       Type             X           Y           Z
 ---------------------------------------------------------------------
      1          6           0        2.886131    0.395512   -0.149585
      2          6           0        1.807741    1.252454   -0.039383
      3          6           0        0.531963    0.765579    0.079117
      4          6           0        0.325323   -0.619521    0.120899
      5          6           0        1.397333   -1.455732   -0.004539
      6          6           0        2.681099   -0.953579   -0.140846
      7          1           0       -0.427937    2.714197    0.174099
      8          1           0        3.872538    0.805801   -0.238106
      9          1           0        1.981413    2.311289   -0.044224
     10          6           0       -0.629217    1.660912    0.120721
     11          6           0       -1.077159   -1.163136    0.366891
     12          1           0        1.257799   -2.520161   -0.002607
     13          1           0        3.499051   -1.639211   -0.242284
     14          6           0       -2.195479   -0.209089   -0.023965
     15          6           0       -1.873836    1.218476    0.037972
     16          1           0       -2.694133    1.907937   -0.017923
     17          6           0       -3.402510   -0.639066   -0.353723
     18          1           0       -4.195048    0.046436   -0.585894
     19          1           0       -3.638902   -1.685406   -0.402222
     20          1           0       -1.197249   -2.103254   -0.156170
     21          1           0       -1.165869   -1.354492    1.433973
 ---------------------------------------------------------------------
 Rotational constants (GHZ):           2.7542797           0.8532278           0.6631293
 Standard basis: 3-21G (6D, 7F)
 There are   119 symmetry adapted cartesian basis functions of A   symmetry.
 There are   119 symmetry adapted basis functions of A   symmetry.
   119 basis functions,   195 primitive gaussians,   119 cartesian basis functions
    38 alpha electrons       38 beta electrons
       nuclear repulsion energy       546.4129793759 Hartrees.
 NAtoms=   21 NActive=   21 NUniq=   21 SFac= 1.00D+00 NAtFMM=   60 NAOKFM=F Big=F
 Integral buffers will be    131072 words long.
 Raffenetti 1 integral format.
 Two-electron integral symmetry is turned on.
 One-electron integrals computed using PRISM.
 NBasis=   119 RedAO= T EigKep=  1.17D-03  NBF=   119
 NBsUse=   119 1.00D-06 EigRej= -1.00D+00 NBFU=   119
 Initial guess from the checkpoint file:  "Meth_napthalene_isomer.chk"
 B after Tr=    -0.000000    0.000000    0.000000
         Rot=    0.999999    0.000682   -0.000502    0.000984 Ang=   0.15 deg.
 ExpMin= 1.83D-01 ExpMax= 1.72D+02 ExpMxC= 1.72D+02 IAcc=3 IRadAn=         5 AccDes= 0.00D+00
 Harris functional with IExCor=  205 and IRadAn=       5 diagonalized for initial guess.
 HarFok:  IExCor=  205 AccDes= 0.00D+00 IRadAn=         5 IDoV= 1 UseB2=F ITyADJ=14
 ICtDFT=  3500011 ScaDFX=  1.000000  1.000000  1.000000  1.000000
 FoFCou: FMM=F IPFlag=           0 FMFlag=      100000 FMFlg1=           0
         NFxFlg=           0 DoJE=T BraDBF=F KetDBF=T FulRan=T
         wScrn=  0.000000 ICntrl=       500 IOpCl=  0 I1Cent=   200000004 NGrid=           0
         NMat0=    1 NMatS0=      1 NMatT0=    0 NMatD0=    1 NMtDS0=    0 NMtDT0=    0
 Petite list used in FoFCou.
 Keep R1 ints in memory in canonical form, NReq=26359954.
 Requested convergence on RMS density matrix=1.00D-08 within 128 cycles.
 Requested convergence on MAX density matrix=1.00D-06.
 Requested convergence on             energy=1.00D-06.
 No special actions if energy rises.
 SCF Done:  E(RHF) =  -419.998569919     A.U. after   14 cycles
            NFock= 14  Conv=0.33D-08     -V/T= 2.0013
 Calling FoFJK, ICntrl=      2127 FMM=F ISym2X=0 I1Cent= 0 IOpClX= 0 NMat=1 NMatS=1 NMatT=0.
 ***** Axes restored to original set *****
[...]
 0.00508104,0.07016900,-0.16374072,0.22733020,-0.00002277,0.00023583,0.
 00024115,-0.00249407,0.00342734,-0.00261459,0.01552916,0.01381759,0.00
 166508,-0.12679928,-0.03405205,-0.01078460,-0.01573066,-0.03848546,-0.
 00424609,-0.00464464,0.00180546,-0.00427606,-0.00002554,-0.00037266,-0
 .00005416,-0.00002590,-0.00005335,0.00035885,0.00048337,0.00110857,-0.
 00004016,0.00064510,-0.00139231,0.00228116,0.52205172,0.00123467,-0.00
 127218,0.00049961,0.00198599,-0.00217050,0.00071111,-0.01532890,-0.030
 90327,-0.00234014,-0.03200575,-0.17722767,-0.00609742,-0.00602611,0.00
 054255,-0.00077376,0.00308156,0.00292332,0.00200016,-0.00057280,0.0004
 4855,0.00010123,0.00004754,0.00002982,-0.00018763,-0.00055883,-0.00058
 110,-0.00012043,-0.00262067,-0.00017702,-0.00081969,-0.05044535,0.5778
 2889,0.00061146,-0.00182628,-0.00041999,-0.00457904,0.00229078,0.00650
 406,0.00426675,0.00695026,0.00719525,-0.01001623,-0.00565372,-0.084459
 18,-0.00684590,-0.00969170,0.00476641,-0.00189483,0.00291506,0.0069581
 1,0.00003636,-0.00009408,-0.00054277,0.00032170,-0.00003664,-0.0009736
 9,0.00028253,0.00048742,-0.00004373,-0.00056026,-0.00003432,-0.0050736
 4,0.02670758,-0.05315168,0.60853183,-0.00101020,-0.00379356,-0.0020933
 8,-0.00071879,-0.00096367,0.00007552,-0.00536438,-0.00171481,-0.003415
 75,-0.01284244,0.03405108,-0.00832793,-0.14106650,0.12067877,-0.034593
 09,0.01376422,-0.01889748,0.00359235,-0.00054119,-0.00001656,-0.000049
 46,0.00043177,-0.00078412,0.00021731,-0.00004505,0.00012509,0.00028349
 ,-0.00005007,0.00164460,-0.00015171,0.00106567,0.00172028,0.00076546,0
 .14588994,-0.00452622,-0.00351018,-0.00002421,-0.00086404,0.00052229,-
 0.00035615,-0.00131733,0.00134753,0.00037808,-0.00343483,0.00341804,-0
 .00046448,0.12144431,-0.28880290,0.05379324,0.01980069,-0.02189696,0.0
 0763417,0.00000474,0.00001917,-0.00000139,0.00079008,-0.00114606,0.000
 36405,0.00010594,-0.00008297,-0.00007728,-0.00038326,0.00009085,-0.000
 15382,-0.00058637,0.00086643,-0.00050241,-0.13110406,0.30698309,-0.001
 84968,0.00003331,0.00790307,-0.00009299,-0.00048091,-0.00070112,-0.003
 61108,0.00034173,0.00774556,-0.00396435,0.00922641,0.00507008,-0.03544
 597,0.05356626,-0.06572430,0.00014510,-0.00190008,0.00674717,-0.000100
 84,-0.00004663,-0.00020820,0.00004720,-0.00010115,0.00000761,0.0002681
 7,-0.00007410,-0.00108235,0.00012396,0.00045506,-0.00018377,0.00206669
 ,-0.00085342,-0.00413322,0.04157238,-0.05971415,0.04966486,-0.01156911
 ,-0.00461217,-0.00434838,0.00104246,0.00279203,-0.00226153,0.00091118,
 0.00000077,0.00045527,0.00100101,-0.00310565,-0.00168185,-0.01208823,0
 .00407478,-0.00527642,-0.35518675,-0.00443393,-0.07884770,-0.00001039,
 0.00001036,-0.00000826,0.00058142,0.00065641,0.00148370,-0.00068858,-0
 .00012215,-0.00014692,0.00000361,0.00002309,0.00031626,-0.00057852,0.0
 0051770,-0.00005915,0.00061946,-0.00036733,0.00156648,0.37616887,0.033
 69741,0.00663069,0.00882409,0.00226131,-0.00539091,0.00196357,-0.00001
 150,-0.00125658,0.00008004,-0.00258255,-0.00552108,0.00045620,-0.03438
 630,0.00529574,-0.00879666,-0.00436426,-0.07436776,0.00118360,-0.00009
 149,0.00002376,-0.00002841,-0.00044671,0.00097703,-0.00074534,0.001472
 17,0.00008956,0.00035324,0.00005382,0.00011460,-0.00012756,-0.00122665
 ,0.00062229,-0.00018398,0.00067663,0.00099112,-0.00040176,0.00503224,0
 .07224422,-0.00808814,-0.00118006,0.00487721,-0.00215059,0.00213875,0.
 00787158,0.00046396,0.00004538,-0.00079592,-0.00138735,0.00057584,0.00
 795957,-0.00178078,0.00117749,0.00612662,-0.07886897,0.00120997,-0.071
 99038,-0.00001391,0.00002572,0.00002960,0.00158483,-0.00044340,-0.0048
 8839,-0.00033587,-0.00004675,-0.00014852,0.00035496,-0.00013075,-0.001
 12084,-0.00004461,-0.00012240,-0.00014030,0.00146222,-0.00070178,-0.00
 476495,0.08892257,-0.00251496,0.05686132,0.00092176,0.00083864,0.00019
 944,-0.00104181,-0.00019786,-0.00035372,0.00011004,0.00341552,0.000999
 96,-0.02035720,-0.00637917,0.00098358,0.00068006,-0.00099207,0.0004968
 4,-0.00093087,0.00062787,-0.00045429,-0.00259393,-0.00496213,-0.001578
 93,0.00000887,0.00000908,-0.00005486,0.00022775,0.00054011,0.00004502,
 0.02165613,-0.02265456,0.00836803,-0.19131335,0.01254380,0.01252895,-0
 .00017262,0.00011614,0.00001763,0.00005409,0.00006635,0.00001937,0.683
 66113,0.00088554,-0.00089654,0.00053985,-0.00106440,-0.00137299,-0.000
 65135,0.00697184,0.00027908,-0.00111380,-0.04063378,0.00958133,0.00457
 981,-0.00163329,-0.00738766,0.00035206,-0.00095974,0.00103078,-0.00145
 425,-0.00322333,-0.00038621,0.00305315,0.00010811,0.00001787,0.0000968
 0,-0.00004114,0.00009085,-0.00004391,0.00134301,-0.04634802,0.01978687
 ,0.01106994,-0.10781439,0.00631764,-0.00009479,0.00006523,0.00035658,-
 0.00024260,-0.00048147,-0.00004524,0.15269939,0.75132972,-0.00017859,0
 .00007281,0.00013883,0.00009805,0.00045211,-0.00001356,0.00047608,-0.0
 0138315,-0.00771774,-0.00484303,0.00244718,-0.00166352,-0.00110115,-0.
 00146430,0.00056530,-0.00019369,-0.00011975,-0.00002325,-0.00191975,0.
 00266053,0.01275156,-0.00004807,-0.00004644,0.00002241,0.00001428,-0.0
 0010754,-0.00002076,0.00059534,0.01353700,0.00403922,0.01492728,0.0029
 2526,-0.08762224,0.00032668,-0.00016920,0.00003345,-0.00007992,-0.0001
 1417,0.00000163,-0.11165658,-0.23097127,0.31164034,-0.00205334,-0.0004
 4413,-0.00070269,-0.00349509,0.00540643,-0.00204290,-0.03420367,-0.042
 80790,0.00169137,0.00168480,-0.00234062,-0.00014686,0.00066189,-0.0005
 3800,0.00018315,-0.00001893,-0.00124881,0.00020704,0.01372552,0.017533
 31,-0.00268799,-0.00056834,-0.00009919,-0.00007492,0.00014440,-0.00055
 198,0.00019674,-0.28164593,-0.21192158,0.01963713,-0.01911114,0.033782
 35,-0.01322530,0.00022622,0.00008971,0.00005424,-0.00002843,0.00004518
 ,-0.00004258,-0.15056586,0.04873451,-0.02109003,0.82988670,-0.00171305
 ,0.00100313,-0.00065552,0.00608658,0.00315278,0.00142338,-0.02269496,0
 .00659752,-0.00305782,0.00484555,-0.00534054,0.00292230,-0.00207334,-0
 .00090530,-0.00101642,0.00133509,0.00023814,0.00038007,-0.02288011,-0.
 02250169,0.00543611,0.00017730,0.00000745,-0.00001417,0.00011522,0.000
 26193,0.00020964,-0.19879837,-0.45180386,0.05784685,0.00639086,0.00115
 620,0.00364548,0.00012151,0.00008802,0.00007757,-0.00004275,-0.0000093
 9,0.00002075,0.04672587,-0.19006281,0.03929199,0.17642339,0.76783840,-
 0.00053830,0.00043398,-0.00031416,-0.00200468,0.00092005,0.00069064,-0
 .00505229,-0.00717971,0.01053923,-0.00210702,-0.00039276,-0.00005642,0
 .00156321,0.00030766,-0.00028369,-0.00071700,-0.00100143,-0.00015365,0
 .00620822,0.01130210,0.00846633,-0.00016326,-0.00005912,-0.00014063,-0
 .00005684,-0.00004723,0.00012820,0.02251345,0.06139575,-0.08693206,-0.
 00119530,-0.00049575,0.00580956,-0.00018197,0.00006814,0.00000189,-0.0
 0004489,0.00004197,0.00010906,-0.01855737,0.03966677,-0.09764193,0.052
 37819,-0.13739075,0.21415335,-0.00016951,-0.00035453,0.00006962,-0.000
 83975,0.00052226,-0.00024634,0.00152430,-0.00338113,-0.00077364,0.0006
 6622,0.00019602,0.00026457,-0.00000778,0.00002107,0.00010270,0.0000897
 8,-0.00007646,0.00000778,0.00097147,-0.00012127,0.00153999,-0.00009741
 ,-0.00001162,-0.00001801,0.00002635,-0.00007069,-0.00001131,-0.0157908
 2,0.00436518,-0.00524029,0.00125759,0.00146881,-0.00170346,0.00000755,
 0.00001548,0.00000168,-0.00002854,-0.00001109,-0.00001630,-0.01220980,
 -0.00256742,-0.00048739,-0.36447107,0.00236801,-0.04982920,0.38745017,
 0.00006587,-0.00028187,-0.00024828,-0.00122748,0.00051806,-0.00045045,
 -0.00137744,-0.00384498,0.00420399,-0.00042146,-0.00045796,-0.00021714
 ,0.00014567,0.00013017,-0.00021649,-0.00010724,0.00002759,0.00001201,0
 .00053317,0.00043451,-0.00244665,-0.00014065,-0.00000882,-0.00002587,0
 .00002492,-0.00001221,0.00013389,-0.03616606,0.00447752,-0.00450705,0.
 00039021,-0.00470139,0.00340743,-0.00013768,0.00003875,-0.00004495,-0.
 00001817,0.00002554,0.00002050,0.03292622,0.00025911,0.00494475,0.0064
 3670,-0.06692297,0.00795375,-0.00251934,0.06924310,0.00052969,0.000044
 03,-0.00076563,0.00046518,-0.00058617,0.00010712,-0.00195128,0.0043471
 7,0.01171647,0.00043078,0.00045818,-0.00064642,-0.00000584,-0.00025214
 ,-0.00081344,-0.00011140,0.00027765,0.00007018,0.00168542,-0.00241364,
 -0.00826845,0.00007090,-0.00000579,0.00001420,-0.00010311,0.00002145,0
 .00035112,0.00375589,0.00032463,0.01065359,-0.00052957,0.00149579,0.00
 103525,0.00003358,0.00000414,0.00001021,-0.00001808,-0.00000096,0.0000
 8500,-0.01081108,-0.00327063,0.00489249,-0.04988505,0.00988422,-0.0604
 7215,0.05592357,-0.01074894,0.04264687,-0.00053245,-0.00040990,-0.0001
 1129,0.00087258,0.00045135,0.00016179,-0.00257160,-0.00076828,-0.00084
 695,-0.00488129,0.00406120,0.00130405,-0.00070986,-0.00212698,-0.00031
 398,0.00021187,0.00002131,-0.00021680,0.00081852,0.00116460,0.00030478
 ,0.00003094,-0.00002776,0.00002080,-0.00006507,-0.00024967,0.00000433,
 -0.00144162,0.00800310,-0.00280517,-0.02571189,-0.03117782,0.01873376,
 0.00013244,0.00002413,0.00020058,-0.00013240,-0.00019134,0.00002427,-0
 .29059346,-0.19560338,0.10091388,0.01802068,0.00699675,-0.00300219,0.0
 0121250,0.00124315,0.00030958,0.79609548,-0.00029236,0.00057051,-0.000
 14013,0.00011395,0.00058618,-0.00000570,-0.00107372,0.00040265,0.00014
 902,0.00279814,-0.00183885,-0.00024851,0.00043768,0.00073513,-0.000157
 12,-0.00023844,-0.00031578,0.00011306,-0.00047197,-0.00123533,-0.00062
 363,-0.00007415,-0.00002912,-0.00002773,0.00007004,0.00013245,-0.00002
 698,0.00966187,0.00045105,0.00136332,0.00087681,0.00875938,0.00183246,
 -0.00017384,0.00005618,-0.00010714,0.00000273,0.00008137,0.00000580,-0
 .20141679,-0.39104577,0.15466178,-0.02422294,-0.04450639,0.02229708,-0
 .00052483,0.00128864,0.00001206,0.07866825,0.77713580,0.00025959,-0.00
 024779,0.00009801,-0.00021662,-0.00027753,-0.00002587,0.00074320,0.000
 05296,0.00024447,0.00024558,-0.00059619,0.00020771,-0.00014595,0.00020
 275,0.00026762,0.00017363,0.00023520,-0.00002037,0.00032268,0.00030257
 ,-0.00028254,0.00002986,0.00001511,-0.00000337,-0.00001545,-0.00002932
 ,-0.00001846,-0.00387191,0.00005641,0.00073621,0.00590203,0.00547560,0
 .00568101,0.00003746,-0.00002049,0.00000615,0.00002426,0.00000610,-0.0
 0004250,0.10187392,0.15374261,-0.15022568,0.01021089,0.02035854,0.0029
 9281,0.00073113,-0.00158360,-0.00099097,-0.09371880,-0.27775604,0.2718
 5045,-0.00006758,-0.00009014,-0.00001519,0.00012246,-0.00000015,-0.000
 00924,-0.00012543,-0.00004523,-0.00010003,-0.00053513,0.00075323,0.000
 43141,-0.00008230,-0.00035474,0.00005868,0.00003887,-0.00000071,-0.000
 04205,-0.00004952,-0.00007306,0.00011711,-0.00000202,-0.00001544,0.000
 01097,-0.00001060,-0.00005653,0.00001743,0.00031733,-0.00028051,0.0001
 2922,0.00110148,-0.00244704,0.00122710,0.00004934,0.00000853,0.0000372
 0,-0.00002750,-0.00003719,-0.00001438,-0.01893337,0.00592881,0.0000941
 1,0.00108213,0.00123206,-0.00147976,0.00077121,-0.00096141,0.00037434,
 -0.36722533,0.02122772,0.01978667,0.39304818,-0.00014268,-0.00002686,-
 0.00004526,0.00017846,0.00008755,0.00007582,-0.00030878,0.00000356,-0.
 00022656,-0.00029845,0.00022649,-0.00003892,-0.00001875,-0.00011340,0.
 00010789,0.00004680,-0.00010081,-0.00000734,-0.00003941,0.00007011,0.0
 0031572,0.00000904,-0.00000010,-0.00000190,-0.00001275,-0.00003060,0.0
 0001958,0.00043692,0.00018626,0.00007927,0.00011910,-0.00082926,0.0059
 0869,0.00002560,-0.00000488,0.00002969,-0.00000299,-0.00002021,-0.0000
 2038,-0.03212345,0.00700920,0.00348165,-0.00159189,-0.00098702,-0.0040
 2291,0.00026627,-0.00015057,0.00052796,0.02982488,-0.06915385,0.007462
 29,-0.02385141,0.06255545,-0.00033452,0.00015855,-0.00011308,0.0003046
 1,0.00026415,0.00007294,-0.00048745,-0.00049607,-0.00046458,0.00192123
 ,-0.00131913,-0.00035890,0.00037387,0.00088688,0.00038105,0.00011160,-
 0.00041452,0.00014904,-0.00020955,0.00009599,0.00072471,-0.00000461,0.
 00001215,-0.00000667,0.00000085,0.00002553,0.00003289,0.00074532,-0.00
 001872,0.00034222,0.00150674,0.00801737,0.00984617,0.00000472,-0.00001
 160,-0.00002113,0.00005203,0.00004032,-0.00006306,0.01618880,0.0015020
 4,0.00536618,0.00023290,-0.00524160,-0.00770177,-0.00084176,0.00049455
 ,0.00034309,0.01593372,0.00783164,-0.05021519,-0.02263015,-0.01242424,
 0.03613145,0.00002091,0.00001841,0.00000352,-0.00004398,-0.00001082,-0
 .00001098,0.00024726,0.00015488,0.00016851,-0.00000212,0.00006141,-0.0
 0002441,0.00002129,0.00004626,-0.00000980,-0.00001754,0.00001074,-0.00
 001304,-0.00009963,-0.00028288,-0.00018773,-0.00000169,0.00000615,0.00
 000208,-0.00000101,0.00002300,-0.00001166,0.00079535,-0.00088662,0.000
 20231,0.00136363,-0.00125811,-0.00006682,-0.00002993,-0.00000449,-0.00
 000438,0.00000734,0.00000803,0.00000537,0.01213425,-0.02153887,0.00897
 575,-0.00254579,-0.00135244,0.00186757,0.00030996,-0.00037342,0.000250
 04,-0.12297448,0.11171198,-0.04094728,-0.00950728,0.02884065,-0.010989
 12,0.12025724,0.00010843,0.00006835,0.00003800,-0.00024554,-0.00003522
 ,-0.00006443,0.00050902,0.00037831,0.00046389,-0.00058383,0.00022847,-
 0.00042876,-0.00003700,-0.00017265,-0.00006837,-0.00016471,0.00007495,
 -0.00008066,-0.00010329,-0.00043709,-0.00069924,-0.00002203,-0.0000101
 9,0.00000107,0.00003127,0.00005003,-0.00001313,0.00085172,-0.00095444,
 0.00040725,0.00108732,-0.00099209,-0.00302220,-0.00005279,0.00002235,0
 .00000464,-0.00002000,0.00000143,0.00001605,0.01633535,-0.02029380,0.0
 1146466,-0.00387019,0.00125380,0.00554209,0.00024525,0.00011284,-0.000
 24952,0.10305242,-0.28294695,0.09279176,-0.00093077,0.00144528,0.00131
 404,-0.11509714,0.30127934,0.00027121,-0.00010955,0.00010044,-0.000231
 19,-0.00024229,-0.00008903,0.00017825,0.00023165,0.00070506,-0.0004762
 7,0.00051098,0.00038818,-0.00023911,-0.00046683,-0.00029627,-0.0000471
 1,0.00031534,-0.00008722,0.00046370,-0.00001995,-0.00133014,0.00000326
 ,-0.00000600,0.00001031,-0.00000539,-0.00002095,-0.00002996,-0.0013630
 7,0.00057734,-0.00065504,-0.00157519,-0.00456508,-0.00706362,-0.000009
 77,0.00000781,0.00002847,-0.00002583,-0.00001354,0.00004409,-0.0076763
 7,0.01274600,0.00475832,0.00293768,0.00631000,0.01085451,0.00035766,-0
 .00028829,-0.00022269,-0.03710316,0.09224983,-0.08230735,0.00179130,-0
 .00130956,0.00500004,0.04101143,-0.10685277,0.07073836,-0.00012593,-0.
 00032214,0.00004509,0.00059384,-0.00033954,-0.00047518,-0.00188007,-0.
 00282982,-0.00065799,0.00667131,-0.01360484,0.01419151,0.00079888,-0.0
 0130471,-0.00002801,0.00036599,0.00026981,0.00035768,0.00011727,0.0000
 3666,-0.00012059,0.00000191,0.00002188,-0.00005732,-0.00009650,-0.0001
 9493,0.00001431,-0.00031064,-0.00039000,0.00022962,-0.09705285,0.06817
 360,-0.06817198,-0.00026412,0.00001801,-0.00037696,-0.00000834,0.00004
 558,0.00001696,-0.01633835,0.02837262,-0.02582299,-0.00674962,-0.00148
 370,0.00127832,-0.00061404,0.00158733,-0.00052933,0.00165466,0.0015880
 4,0.00029322,0.00058681,0.00009752,0.00075073,-0.00014174,-0.00156083,
 -0.00012710,0.11030219,-0.00047169,0.00040187,-0.00005941,0.00163034,-
 0.00063411,-0.00035022,-0.00496698,-0.00364372,-0.00074558,0.01287390,
 -0.02600746,0.02159806,0.00291420,0.00166443,-0.00032810,0.00008306,-0
 .00066123,-0.00077196,0.00007513,-0.00005878,0.00001109,-0.00010913,0.
 00004129,0.00009362,-0.00019027,-0.00041450,-0.00004002,-0.00051293,0.
 00066113,0.00024332,0.06842042,-0.18328427,0.12380600,-0.00130280,0.00
 080616,0.00044143,-0.00005947,0.00001004,0.00004136,0.00131860,-0.0032
 4854,0.00092247,0.00061972,0.00106850,0.00031015,0.00011993,-0.0001293
 5,0.00012205,-0.00182351,0.00046736,-0.00054627,-0.00002275,-0.0001857
 2,-0.00068486,-0.00008516,0.00089860,0.00073313,-0.07300727,0.20239440
 ,0.00037585,-0.00010582,0.00013066,-0.00013715,-0.00060391,-0.00006780
 ,-0.00119294,-0.00058580,-0.00027312,0.00234391,-0.00684716,0.00466185
 ,0.00015876,-0.00035019,0.00049581,0.00024776,0.00025367,0.00011099,0.
 00001428,0.00002048,-0.00006775,0.00002164,-0.00002240,-0.00000988,-0.
 00001331,-0.00009141,-0.00004698,0.00012840,0.00007150,0.00024151,-0.0
 7010029,0.12733129,-0.17694185,0.00044837,0.00000892,0.00013798,0.0000
 1756,0.00003638,-0.00001245,0.00468084,-0.00508920,0.00420526,0.001857
 72,-0.00023127,0.00030881,0.00009381,-0.00025451,0.00023661,0.00004234
 ,-0.00101739,0.00055722,-0.00004522,-0.00024710,0.00018108,-0.00021751
 ,-0.00028879,0.00014099,0.07524235,-0.13720675,0.18946160,0.00073400,-
 0.00111810,0.00021334,-0.00141380,-0.00028484,0.00048169,-0.00045173,0
 .00119271,0.00015719,0.00309534,-0.01041611,-0.01938043,-0.00116243,-0
 .00162213,0.00057609,0.00031089,0.00128981,0.00096010,0.00001419,0.000
 06035,0.00018416,0.00002336,-0.00001766,-0.00011177,-0.00000431,-0.000
 07288,0.00002942,0.00036363,0.00025038,-0.00093157,-0.05998713,0.01788
 508,0.04164132,-0.00008131,0.00017016,-0.00065507,-0.00004262,-0.00000
 967,-0.00011104,-0.01440343,0.01148896,0.04099972,0.00002486,-0.001779
 48,-0.00087886,-0.00005839,0.00009713,0.00011576,-0.00221022,0.0013318
 3,-0.00171810,-0.00055174,-0.00145467,-0.00262997,0.00020796,0.0004673
 5,0.00186505,0.00248933,-0.00550336,-0.01396716,0.07310354,-0.00061262
 ,-0.00030708,-0.00028157,-0.00035948,0.00039115,0.00149025,-0.00171958
 ,-0.00119093,0.00017381,0.00151157,-0.01823806,-0.03430279,0.00114955,
 0.00004262,0.00102885,-0.00006092,-0.00073062,0.00159345,0.00009175,-0
 .00002841,-0.00003062,0.00003500,-0.00002401,-0.00016376,0.00000452,-0
 .00016986,-0.00003749,-0.00075790,0.00016185,-0.00063080,0.01786476,-0
 .08322428,-0.08336419,-0.00000739,0.00012872,-0.00080836,-0.00008289,-
 0.00005999,-0.00007189,0.00056309,-0.00032496,-0.00248638,0.00056595,0
 .00037411,0.00035015,0.00005009,-0.00004571,0.00000845,-0.00113251,0.0
 0040533,0.00035531,0.00001673,0.00001938,-0.00003247,0.00000843,0.0000
 2869,0.00021272,-0.00517328,0.00985391,0.02521947,-0.01195486,0.092938
 14,-0.00023989,0.00039397,-0.00017964,0.00030265,-0.00003033,0.0001024
 5,-0.00127745,0.00064347,0.00005306,-0.00245278,-0.00437112,-0.0020947
 4,0.00063094,0.00008846,0.00091251,-0.00042980,-0.00071268,0.00035724,
 0.00000553,-0.00001904,0.00001060,-0.00000289,-0.00001967,-0.00005100,
 -0.00002799,-0.00005408,0.00000724,0.00106714,-0.00017340,0.00000225,0
 .03980407,-0.07903003,-0.28891342,0.00000351,-0.00006157,-0.00053748,-
 0.00003919,-0.00005818,0.00000164,0.00474083,-0.00010053,-0.00348629,0
 .00031128,-0.00019936,-0.00035792,0.00007520,-0.00013864,0.00001754,0.
 00016444,-0.00040565,0.00149064,0.00026046,0.00033560,0.00037353,-0.00
 000385,-0.00027558,-0.00068744,0.00394768,-0.00758950,-0.02345054,-0.0
 4683989,0.09177786,0.31642975\\0.00002938,0.00001172,-0.00002028,-0.00
 003176,0.00001879,0.00002741,-0.00001182,-0.00000190,-0.00001774,-0.00
 001125,-0.00002805,-0.00002334,0.00000476,-0.00002939,-0.00000675,0.00
 001764,0.00002006,0.00004656,-0.00000067,-0.00000153,-0.00000571,0.000
 00361,-0.00000107,-0.00000812,0.00000017,-0.00000153,-0.00000284,0.000
 00730,-0.00000265,0.00000851,0.00000422,0.00002260,0.00001824,-0.00000
 228,0.00000036,-0.00000015,0.00000313,0.00000180,-0.00000751,0.0000005
 6,-0.00001400,-0.00001268,-0.00001468,-0.00000464,0.00000546,0.0000051
 6,-0.00000041,0.00000112,-0.00000122,0.00001444,-0.00001195,-0.0000002
 7,-0.00000114,0.00000844,-0.00000085,-0.00000243,0.00000226,-0.0000011
 2,-0.00000322,-0.00000016,-0.00000003,0.00000216,-0.00000077\\\@


 CHARLIE BROWN.."I CAN'T GET THAT STUPID KITE IN THE
 AIR... I CAN'T... I C A N N O T..."
 LUCY.."OH COME NOW CHARLIE BROWN...THAT'S NO WAY TO TALK...
 THE TROUBLE WITH YOU IS YOU DON'T BELIEVE IN YOURSELF... YOU
 DON'T BELIEVE IN YOUR OWN ABILITIES...  YOU'VE GOT TO SAY TO
 YOURSELF...'I BELIEVE I CAN FLY THIS KITE.'... GO AHEAD SAY
 IT...."
 CHARLIE BROWN.."I BELIEVE THAT I CAN FLY THIS STUPID
 KITE.....I BELIEVE THAT I CAN FLY THIS KITE........
 I  A C T U A L L Y  B E L I E V E  T H A T  I  C A N ******"
 LUCY.."I'LL BET YOU TEN-TO-ONE YOU'RE WRONG......."    SCHULZ
 Job cpu time:       0 days  0 hours  0 minutes 12.4 seconds.
 Elapsed time:       0 days  0 hours  0 minutes 12.4 seconds.
 File lengths (MBytes):  RWF=     48 Int=      0 D2E=      0 Chk=      3 Scr=      1
 Normal termination of Gaussian 16 at Mon Jun  9 22:16:49 2025.
