 Entering Gaussian System, Link 0=g16
 Input=/home/gaussian/Documents/program files/Aromaticity/AM1 HF3-21G*/meth_napthlene/opt freq/Meth_napthalene_isomer_optfreq.com
 Output=/home/gaussian/Documents/program files/Aromaticity/AM1 HF3-21G*/meth_napthlene/opt freq/Meth_napthalene_isomer_optfreq.log
 Initial command:
 /usr/local/g16/l1.exe "/home/gaussian/tmp/Gau-142665.inp" -scrdir="/home/gaussian/tmp/"
 Entering Link 1 = /usr/local/g16/l1.exe PID=    142668.
  
 Copyright (c) 1988-2017, Gaussian, Inc.  All Rights Reserved.
  
 This is part of the Gaussian(R) 16 program.  It is based on
 the Gaussian(R) 09 system (copyright 2009, Gaussian, Inc.),
 the Gaussian(R) 03 system (copyright 2003, Gaussian, Inc.),
 the Gaussian(R) 98 system (copyright 1998, Gaussian, Inc.),
 the Gaussian(R) 94 system (copyright 1995, Gaussian, Inc.),
 the Gaussian 92(TM) system (copyright 1992, Gaussian, Inc.),
 the Gaussian 90(TM) system (copyright 1990, Gaussian, Inc.),
 the Gaussian 88(TM) system (copyright 1988, Gaussian, Inc.),
 the Gaussian 86(TM) system (copyright 1986, Carnegie Mellon
 University), and the Gaussian 82(TM) system (copyright 1983,
 Carnegie Mellon University). Gaussian is a federally registered
 trademark of Gaussian, Inc.
  
 This software contains proprietary and confidential information,
 including trade secrets, belonging to Gaussian, Inc.
  
 This software is provided under written license and may be
 used, copied, transmitted, or stored only in accord with that
 written license.
  
 The following legend is applicable only to US Government
 contracts under FAR:
  
                    RESTRICTED RIGHTS LEGEND
  
 Use, reproduction and disclosure by the US Government is
 subject to restrictions as set forth in subparagraphs (a)
 and (c) of the Commercial Computer Software - Restricted
 Rights clause in FAR 52.227-19.
  
 Gaussian, Inc.
 340 Quinnipiac St., Bldg. 40, Wallingford CT 06492
  
  
 ---------------------------------------------------------------
 Warning -- This program may not be used in any manner that
 competes with the business of Gaussian, Inc. or will provide
 assistance to any competitor of Gaussian, Inc.  The licensee
 of this program is prohibited from giving any competitor of
 Gaussian, Inc. access to this program.  By using this program,
 the user acknowledges that Gaussian, Inc. is engaged in the
 business of creating and licensing software in the field of
 computational chemistry and represents and warrants to the
 licensee that it is not a competitor of Gaussian, Inc. and that
 it will not use this program in any manner prohibited above.
 ---------------------------------------------------------------
  

 Cite this work as:
 Gaussian 16, Revision B.01,
 M. J. Frisch, G. W. Trucks, H. B. Schlegel, G. E. Scuseria, 
 M. A. Robb, J. R. Cheeseman, G. Scalmani, V. Barone, 
 G. A. Petersson, H. Nakatsuji, X. Li, M. Caricato, A. V. Marenich, 
 J. Bloino, B. G. Janesko, R. Gomperts, B. Mennucci, H. P. Hratchian, 
 J. V. Ortiz, A. F. Izmaylov, J. L. Sonnenberg, D. Williams-Young, 
 F. Ding, F. Lipparini, F. Egidi, J. Goings, B. Peng, A. Petrone, 
 T. Henderson, D. Ranasinghe, V. G. Zakrzewski, J. Gao, N. Rega, 
 G. Zheng, W. Liang, M. Hada, M. Ehara, K. Toyota, R. Fukuda, 
 J. Hasegawa, M. Ishida, T. Nakajima, Y. Honda, O. Kitao, H. Nakai, 
 T. Vreven, K. Throssell, J. A. Montgomery, Jr., J. E. Peralta, 
 F. Ogliaro, M. J. Bearpark, J. J. Heyd, E. N. Brothers, K. N. Kudin, 
 V. N. Staroverov, T. A. Keith, R. Kobayashi, J. Normand, 
 K. Raghavachari, A. P. Rendell, J. C. Burant, S. S. Iyengar, 
 J. Tomasi, M. Cossi, J. M. Millam, M. Klene, C. Adamo, R. Cammi, 
 J. W. Ochterski, R. L. Martin, K. Morokuma, O. Farkas, 
 J. B. Foresman, and D. J. Fox, Gaussian, Inc., Wallingford CT, 2016.
 
 ******************************************
 Gaussian 16:  EM64L-G16RevB.01 20-Dec-2017
                12-Jun-2025 
 ******************************************
 %chk=Meth_napthalene_isomer_optfreq.chk
 -----------------------------------------
 # opt freq am1 pop=full geom=connectivity
 -----------------------------------------
 1/18=20,19=15,26=1,38=1,57=2/1,3;
 2/9=110,12=2,17=6,18=5,40=1/2;
 3/5=2,25=1,41=700000,71=1/1,2,3;
 4/35=1/1;
 5/5=2,35=1,38=5/2;
 6/7=3,28=1/1;
 7//1,2,3,16;
 1/18=20,19=15,26=1/3(2);
 2/9=110/2;
 99//99;
 2/9=110/2;
 3/5=2,25=1,41=700000,71=1,135=20/1,2,3;
 4/5=5,16=3,35=1/1;
 5/5=2,35=1,38=5/2;
 7//1,2,3,16;
 1/18=20,19=15,26=1/3(-5);
 2/9=110/2;
 6/7=3,19=2,28=1/1;
 99/9=1/99;
 ------------
 Optimisation
 ------------
 Symbolic Z-matrix:
 Charge =  0 Multiplicity = 1
 C                     2.88406   0.40747  -0.19185 
 C                     1.80413   1.26337  -0.07806 
 C                     0.51921   0.76442   0.08562 
 C                     0.31884  -0.61473   0.14344 
 C                     1.40338  -1.4639    0.02514 
 C                     2.68275  -0.95963  -0.14373 
 H                    -0.44266   2.71773   0.21659 
 H                     3.87145   0.80394  -0.32074 
 H                     1.9545    2.32493  -0.12308 
 C                    -0.64176   1.66483   0.15672 
 C                    -1.07796  -1.15621   0.41141 
 H                     1.25115  -2.52549   0.06679 
 H                     3.51362  -1.63065  -0.23566 
 C                    -2.18958  -0.21785  -0.03034 
 C                    -1.88792   1.21822   0.08399 
 H                    -2.71503   1.90161   0.06799 
 C                    -3.36794  -0.65527  -0.44072 
 H                    -4.16205   0.0221   -0.69305 
 H                    -3.58165  -1.70232  -0.54167 
 H                    -1.19902  -2.12549  -0.05516 
 H                    -1.17358  -1.29065   1.48833 
 

 GradGradGradGradGradGradGradGradGradGradGradGradGradGradGradGradGradGrad
 Berny optimization.
 Initialization pass.
                           ----------------------------
                           !    Initial Parameters    !
                           ! (Angstroms and Degrees)  !
 --------------------------                            --------------------------
 ! Name  Definition              Value          Derivative Info.                !
 --------------------------------------------------------------------------------
 ! R1    R(1,2)                  1.3827         estimate D2E/DX2                !
 ! R2    R(1,6)                  1.3827         estimate D2E/DX2                !
 ! R3    R(1,8)                  1.0718         estimate D2E/DX2                !
 ! R4    R(2,3)                  1.3881         estimate D2E/DX2                !
 ! R5    R(2,9)                  1.0731         estimate D2E/DX2                !
 ! R6    R(3,4)                  1.3948         estimate D2E/DX2                !
 ! R7    R(3,10)                 1.4709         estimate D2E/DX2                !
 ! R8    R(4,5)                  1.3825         estimate D2E/DX2                !
 ! R9    R(4,11)                 1.5219         estimate D2E/DX2                !
 ! R10   R(5,6)                  1.3855         estimate D2E/DX2                !
 ! R11   R(5,12)                 1.0733         estimate D2E/DX2                !
 ! R12   R(6,13)                 1.0719         estimate D2E/DX2                !
 ! R13   R(7,10)                 1.0732         estimate D2E/DX2                !
 ! R14   R(10,15)                1.3258         estimate D2E/DX2                !
 ! R15   R(11,14)                1.5203         estimate D2E/DX2                !
 ! R16   R(11,20)                1.0825         estimate D2E/DX2                !
 ! R17   R(11,21)                1.0895         estimate D2E/DX2                !
 ! R18   R(14,15)                1.4719         estimate D2E/DX2                !
 ! R19   R(14,17)                1.3222         estimate D2E/DX2                !
 ! R20   R(15,16)                1.073          estimate D2E/DX2                !
 ! R21   R(17,18)                1.0738         estimate D2E/DX2                !
 ! R22   R(17,19)                1.0734         estimate D2E/DX2                !
 ! A1    A(2,1,6)              119.7001         estimate D2E/DX2                !
 ! A2    A(2,1,8)              120.0305         estimate D2E/DX2                !
 ! A3    A(6,1,8)              120.2689         estimate D2E/DX2                !
 ! A4    A(1,2,3)              120.6776         estimate D2E/DX2                !
 ! A5    A(1,2,9)              119.964          estimate D2E/DX2                !
 ! A6    A(3,2,9)              119.3569         estimate D2E/DX2                !
 ! A7    A(2,3,4)              119.556          estimate D2E/DX2                !
 ! A8    A(2,3,10)             121.0837         estimate D2E/DX2                !
 ! A9    A(4,3,10)             119.3318         estimate D2E/DX2                !
 ! A10   A(3,4,5)              119.4122         estimate D2E/DX2                !
 ! A11   A(3,4,11)             119.4027         estimate D2E/DX2                !
 ! A12   A(5,4,11)             121.1001         estimate D2E/DX2                !
 ! A13   A(4,5,6)              120.7476         estimate D2E/DX2                !
 ! A14   A(4,5,12)             119.5358         estimate D2E/DX2                !
 ! A15   A(6,5,12)             119.7165         estimate D2E/DX2                !
 ! A16   A(1,6,5)              119.9041         estimate D2E/DX2                !
 ! A17   A(1,6,13)             120.2049         estimate D2E/DX2                !
 ! A18   A(5,6,13)             119.8909         estimate D2E/DX2                !
 ! A19   A(3,10,7)             117.1812         estimate D2E/DX2                !
 ! A20   A(3,10,15)            122.2104         estimate D2E/DX2                !
 ! A21   A(7,10,15)            120.5254         estimate D2E/DX2                !
 ! A22   A(4,11,14)            113.5986         estimate D2E/DX2                !
 ! A23   A(4,11,20)            110.2016         estimate D2E/DX2                !
 ! A24   A(4,11,21)            107.3678         estimate D2E/DX2                !
 ! A25   A(14,11,20)           110.2216         estimate D2E/DX2                !
 ! A26   A(14,11,21)           107.4103         estimate D2E/DX2                !
 ! A27   A(20,11,21)           107.8019         estimate D2E/DX2                !
 ! A28   A(11,14,15)           115.4539         estimate D2E/DX2                !
 ! A29   A(11,14,17)           122.5219         estimate D2E/DX2                !
 ! A30   A(15,14,17)           121.9736         estimate D2E/DX2                !
 ! A31   A(10,15,14)           121.707          estimate D2E/DX2                !
 ! A32   A(10,15,16)           120.7179         estimate D2E/DX2                !
 ! A33   A(14,15,16)           117.533          estimate D2E/DX2                !
 ! A34   A(14,17,18)           121.5547         estimate D2E/DX2                !
 ! A35   A(14,17,19)           121.9594         estimate D2E/DX2                !
 ! A36   A(18,17,19)           116.4858         estimate D2E/DX2                !
 ! D1    D(6,1,2,3)              0.0739         estimate D2E/DX2                !
 ! D2    D(6,1,2,9)           -179.4886         estimate D2E/DX2                !
 ! D3    D(8,1,2,3)            179.8249         estimate D2E/DX2                !
 ! D4    D(8,1,2,9)              0.2624         estimate D2E/DX2                !
 ! D5    D(2,1,6,5)             -0.3459         estimate D2E/DX2                !
 ! D6    D(2,1,6,13)           179.7175         estimate D2E/DX2                !
 ! D7    D(8,1,6,5)            179.9038         estimate D2E/DX2                !
 ! D8    D(8,1,6,13)            -0.0329         estimate D2E/DX2                !
 ! D9    D(1,2,3,4)              0.3759         estimate D2E/DX2                !
 ! D10   D(1,2,3,10)          -177.6694         estimate D2E/DX2                !
 ! D11   D(9,2,3,4)            179.941          estimate D2E/DX2                !
 ! D12   D(9,2,3,10)             1.8957         estimate D2E/DX2                !
 ! D13   D(2,3,4,5)             -0.5506         estimate D2E/DX2                !
 ! D14   D(2,3,4,11)           176.1333         estimate D2E/DX2                !
 ! D15   D(10,3,4,5)           177.5292         estimate D2E/DX2                !
 ! D16   D(10,3,4,11)           -5.7869         estimate D2E/DX2                !
 ! D17   D(2,3,10,7)            -8.4138         estimate D2E/DX2                !
 ! D18   D(2,3,10,15)          168.2863         estimate D2E/DX2                !
 ! D19   D(4,3,10,7)           173.5366         estimate D2E/DX2                !
 ! D20   D(4,3,10,15)           -9.7634         estimate D2E/DX2                !
 ! D21   D(3,4,5,6)              0.2833         estimate D2E/DX2                !
 ! D22   D(3,4,5,12)          -179.8426         estimate D2E/DX2                !
 ! D23   D(11,4,5,6)          -176.3427         estimate D2E/DX2                !
 ! D24   D(11,4,5,12)            3.5314         estimate D2E/DX2                !
 ! D25   D(3,4,11,14)           26.602          estimate D2E/DX2                !
 ! D26   D(3,4,11,20)          150.8425         estimate D2E/DX2                !
 ! D27   D(3,4,11,21)          -92.0017         estimate D2E/DX2                !
 ! D28   D(5,4,11,14)         -156.7717         estimate D2E/DX2                !
 ! D29   D(5,4,11,20)          -32.5312         estimate D2E/DX2                !
 ! D30   D(5,4,11,21)           84.6246         estimate D2E/DX2                !
 ! D31   D(4,5,6,1)              0.1669         estimate D2E/DX2                !
 ! D32   D(4,5,6,13)          -179.8962         estimate D2E/DX2                !
 ! D33   D(12,5,6,1)          -179.707          estimate D2E/DX2                !
 ! D34   D(12,5,6,13)            0.2298         estimate D2E/DX2                !
 ! D35   D(3,10,15,14)           1.9724         estimate D2E/DX2                !
 ! D36   D(3,10,15,16)        -175.6069         estimate D2E/DX2                !
 ! D37   D(7,10,15,14)         178.5645         estimate D2E/DX2                !
 ! D38   D(7,10,15,16)           0.9851         estimate D2E/DX2                !
 ! D39   D(4,11,14,15)         -33.0386         estimate D2E/DX2                !
 ! D40   D(4,11,14,17)         149.5052         estimate D2E/DX2                !
 ! D41   D(20,11,14,15)       -157.2682         estimate D2E/DX2                !
 ! D42   D(20,11,14,17)         25.2756         estimate D2E/DX2                !
 ! D43   D(21,11,14,15)         85.5407         estimate D2E/DX2                !
 ! D44   D(21,11,14,17)        -91.9155         estimate D2E/DX2                !
 ! D45   D(11,14,15,10)         20.1434         estimate D2E/DX2                !
 ! D46   D(11,14,15,16)       -162.2034         estimate D2E/DX2                !
 ! D47   D(17,14,15,10)       -162.3851         estimate D2E/DX2                !
 ! D48   D(17,14,15,16)         15.2682         estimate D2E/DX2                !
 ! D49   D(11,14,17,18)        176.2615         estimate D2E/DX2                !
 ! D50   D(11,14,17,19)         -3.8824         estimate D2E/DX2                !
 ! D51   D(15,14,17,18)         -1.0307         estimate D2E/DX2                !
 ! D52   D(15,14,17,19)        178.8253         estimate D2E/DX2                !
 --------------------------------------------------------------------------------
 Trust Radius=3.00D-01 FncErr=1.00D-07 GrdErr=1.00D-07 EigMax=2.50D+02 EigMin=1.00D-04
 Number of steps in this run=    120 maximum allowed number of steps=    126.
 GradGradGradGradGradGradGradGradGradGradGradGradGradGradGradGradGradGrad

                          Input orientation:                          
 ---------------------------------------------------------------------
 Center     Atomic      Atomic             Coordinates (Angstroms)
 Number     Number       Type             X           Y           Z
 ---------------------------------------------------------------------
      1          6           0        2.884061    0.407471   -0.191852
      2          6           0        1.804127    1.263365   -0.078061
      3          6           0        0.519214    0.764423    0.085624
      4          6           0        0.318844   -0.614731    0.143436
      5          6           0        1.403377   -1.463903    0.025137
      6          6           0        2.682747   -0.959632   -0.143731
      7          1           0       -0.442655    2.717732    0.216594
      8          1           0        3.871447    0.803937   -0.320735
      9          1           0        1.954504    2.324928   -0.123076
     10          6           0       -0.641760    1.664826    0.156718
     11          6           0       -1.077963   -1.156209    0.411407
     12          1           0        1.251154   -2.525488    0.066794
     13          1           0        3.513617   -1.630654   -0.235659
     14          6           0       -2.189577   -0.217854   -0.030340
     15          6           0       -1.887921    1.218224    0.083986
     16          1           0       -2.715030    1.901613    0.067990
     17          6           0       -3.367939   -0.655265   -0.440716
     18          1           0       -4.162051    0.022095   -0.693050
     19          1           0       -3.581646   -1.702320   -0.541672
     20          1           0       -1.199015   -2.125490   -0.055163
     21          1           0       -1.173575   -1.290654    1.488329
 ---------------------------------------------------------------------
                    Distance matrix (angstroms):
                    1          2          3          4          5
     1  C    0.000000
     2  C    1.382664   0.000000
     3  C    2.407677   1.388070   0.000000
     4  C    2.781664   2.404656   1.394832   0.000000
     5  C    2.396153   2.758485   2.398091   1.382498   0.000000
     6  C    1.382683   2.391234   2.775940   2.406129   1.385494
     7  H    4.070771   2.692589   2.181229   3.419144   4.574993
     8  H    1.071787   2.131614   3.377004   3.853448   3.369584
     9  H    2.132006   1.073106   2.130443   3.374612   3.831573
    10  C    3.759502   2.489710   1.470932   2.473725   3.740166
    11  C    4.301936   3.794781   2.519114   1.521866   2.530006
    12  H    3.366828   3.831732   3.370401   2.127456   1.073252
    13  H    2.133592   3.364898   3.847865   3.373779   2.132823
    14  C    5.114579   4.259807   2.883724   2.545562   3.803293
    15  C    4.848218   3.695878   2.449538   2.869333   4.246164
    16  H    5.800845   4.566341   3.428388   3.942343   5.318817
    17  C    6.346562   5.528375   4.171631   3.732994   4.861725
    18  H    7.074419   6.124887   4.803293   4.602573   5.804995
    19  H    6.810210   6.165774   4.826528   4.106829   5.022805
    20  H    4.806879   4.528104   3.365075   2.150751   2.686371
    21  H    4.708614   4.224133   3.009395   2.119652   2.968439
                    6          7          8          9         10
     6  C    0.000000
     7  H    4.839522   0.000000
     8  H    2.134131   4.750033   0.000000
     9  H    3.364387   2.452762   2.455026   0.000000
    10  C    4.246221   1.073238   4.619321   2.693438   0.000000
    11  C    3.806542   3.930520   5.373534   4.647563   2.865899
    12  H    2.132061   5.512058   4.254549   4.904823   4.598907
    13  H    1.071945   5.896192   2.462217   4.253250   5.318017
    14  C    4.929770   3.424964   6.153405   4.862895   2.444425
    15  C    5.068128   2.086840   5.788415   4.003985   1.325768
    16  H    6.112900   2.419054   6.688623   4.692574   2.088633
    17  C    6.065611   4.512921   7.385958   6.108260   3.629298
    18  H    6.936627   4.682715   8.080036   6.560500   3.976571
    19  H    6.320804   5.474038   7.866304   6.858783   4.524196
    20  H    4.054028   4.909453   5.861882   5.454862   3.836916
    21  H    4.200526   4.268338   5.754326   5.045190   3.284947
                   11         12         13         14         15
    11  C    0.000000
    12  H    2.723687   0.000000
    13  H    4.661159   2.451723   0.000000
    14  C    1.520308   4.144061   5.879165   0.000000
    15  C    2.530053   4.885639   6.115136   1.471865   0.000000
    16  H    3.485427   5.943891   7.166949   2.185843   1.073026
    17  C    2.494203   5.009124   6.953362   1.322223   2.444530
    18  H    3.481354   6.030782   7.864901   2.094615   2.684432
    19  H    2.734049   4.940019   7.102221   2.098322   3.433618
    20  H    1.082519   2.485599   4.741977   2.149629   3.416779
    21  H    1.089485   3.069998   5.005747   2.118848   2.962590
                   16         17         18         19         20
    16  H    0.000000
    17  C    2.687508   0.000000
    18  H    2.491112   1.073826   0.000000
    19  H    3.756467   1.073400   1.825758   0.000000
    20  H    4.304768   2.648480   3.714647   2.468338   0.000000
    21  H    3.818902   2.990011   3.925903   3.176347   1.754983
                   21
    21  H    0.000000
 Stoichiometry    C11H10
 Framework group  C1[X(C11H10)]
 Deg. of freedom    57
 Full point group                 C1      NOp   1
 Largest Abelian subgroup         C1      NOp   1
 Largest concise Abelian subgroup C1      NOp   1
                         Standard orientation:                         
 ---------------------------------------------------------------------
 Center     Atomic      Atomic             Coordinates (Angstroms)
 Number     Number       Type             X           Y           Z
 ---------------------------------------------------------------------
      1          6           0        2.884061    0.407471   -0.191852
      2          6           0        1.804127    1.263365   -0.078061
      3          6           0        0.519214    0.764423    0.085624
      4          6           0        0.318844   -0.614731    0.143436
      5          6           0        1.403377   -1.463903    0.025137
      6          6           0        2.682747   -0.959632   -0.143731
      7          1           0       -0.442655    2.717732    0.216594
      8          1           0        3.871447    0.803937   -0.320735
      9          1           0        1.954504    2.324928   -0.123076
     10          6           0       -0.641760    1.664826    0.156718
     11          6           0       -1.077963   -1.156209    0.411407
     12          1           0        1.251154   -2.525488    0.066794
     13          1           0        3.513617   -1.630654   -0.235659
     14          6           0       -2.189577   -0.217854   -0.030340
     15          6           0       -1.887921    1.218224    0.083986
     16          1           0       -2.715030    1.901613    0.067990
     17          6           0       -3.367939   -0.655265   -0.440716
     18          1           0       -4.162051    0.022095   -0.693050
     19          1           0       -3.581646   -1.702320   -0.541672
     20          1           0       -1.199015   -2.125490   -0.055163
     21          1           0       -1.173575   -1.290654    1.488329
 ---------------------------------------------------------------------
 Rotational constants (GHZ):           2.7052811           0.8543679           0.6648566
 Standard basis: VSTO-6G (5D, 7F)
 There are    54 symmetry adapted cartesian basis functions of A   symmetry.
 There are    54 symmetry adapted basis functions of A   symmetry.
    54 basis functions,   324 primitive gaussians,    54 cartesian basis functions
    27 alpha electrons       27 beta electrons
       nuclear repulsion energy       298.2556338467 Hartrees.
 Integral buffers will be    131072 words long.
 Regular integral format.
 Two-electron integral symmetry is turned off.
 Do NDO integrals.
 One-electron integrals computed using PRISM.
 NBasis=    54 RedAO= F EigKep=  0.00D+00  NBF=    54
 NBsUse=    54 1.00D-04 EigRej=  0.00D+00 NBFU=    54
 Simple Huckel Guess.
 Keep J ints in memory in canonical form, NReq=866898.
 Overlap will be assumed to be unity.
 Requested convergence on RMS density matrix=1.00D-08 within 128 cycles.
 Requested convergence on MAX density matrix=1.00D-06.
 Requested convergence on             energy=1.00D-06.
 No special actions if energy rises.
 SCF Done:  E(RAM1) =  0.889557507800E-01 A.U. after   13 cycles
            NFock= 12  Conv=0.99D-08     -V/T= 1.0010

 **********************************************************************

            Population analysis using the SCF Density.

 **********************************************************************

 Orbital symmetries:
       Occupied  (A) (A) (A) (A) (A) (A) (A) (A) (A) (A) (A) (A)
                 (A) (A) (A) (A) (A) (A) (A) (A) (A) (A) (A) (A)
                 (A) (A) (A)
       Virtual   (A) (A) (A) (A) (A) (A) (A) (A) (A) (A) (A) (A)
                 (A) (A) (A) (A) (A) (A) (A) (A) (A) (A) (A) (A)
                 (A) (A) (A)
 The electronic state is 1-A.
 Alpha  occ. eigenvalues --   -1.49532  -1.37305  -1.23695  -1.19061  -1.11785
 Alpha  occ. eigenvalues --   -1.00993  -0.88029  -0.84198  -0.81122  -0.68287
 Alpha  occ. eigenvalues --   -0.64501  -0.61350  -0.57963  -0.56435  -0.55599
 Alpha  occ. eigenvalues --   -0.53552  -0.51381  -0.50446  -0.49367  -0.47879
 Alpha  occ. eigenvalues --   -0.45742  -0.44571  -0.42708  -0.41963  -0.37703
 Alpha  occ. eigenvalues --   -0.35359  -0.32015
 Alpha virt. eigenvalues --   -0.00632   0.01906   0.03680   0.07859   0.11122
 Alpha virt. eigenvalues --    0.12860   0.14003   0.14424   0.14715   0.14972
 Alpha virt. eigenvalues --    0.15429   0.16367   0.16596   0.17089   0.17395
 Alpha virt. eigenvalues --    0.17602   0.17992   0.18696   0.18757   0.19593
 Alpha virt. eigenvalues --    0.19605   0.20586   0.20724   0.20890   0.21234
 Alpha virt. eigenvalues --    0.22147   0.22576
     Molecular Orbital Coefficients:
                           1         2         3         4         5
                           O         O         O         O         O
     Eigenvalues --    -1.49532  -1.37305  -1.23695  -1.19061  -1.11785
   1 1   C  1S          0.27077  -0.31078   0.00291  -0.40255  -0.03471
   2        1PX        -0.08795   0.06469  -0.03563   0.02796   0.07314
   3        1PY        -0.02913   0.04262   0.09642   0.00416  -0.17796
   4        1PZ         0.01103  -0.00863   0.00224  -0.00310  -0.00573
   5 2   C  1S          0.30763  -0.22111   0.25632  -0.23267  -0.36421
   6        1PX        -0.03973  -0.04820  -0.08797  -0.12809   0.04212
   7        1PY        -0.08998   0.07560   0.01294   0.03714   0.01308
   8        1PZ         0.00604   0.00366   0.00917   0.01542  -0.00642
   9 3   C  1S          0.40716  -0.02059   0.33348   0.15736  -0.23411
  10        1PX         0.01879  -0.14138  -0.02235  -0.09641  -0.14422
  11        1PY        -0.05576   0.02383   0.13995  -0.11544   0.01007
  12        1PZ        -0.00375   0.01153  -0.00568   0.01735   0.01048
  13 4   C  1S          0.40468  -0.01227  -0.15127   0.41962  -0.09434
  14        1PX         0.03818  -0.14262  -0.00742  -0.02107   0.08488
  15        1PY         0.04809   0.01209   0.16909  -0.03049  -0.08564
  16        1PZ        -0.00492   0.01496  -0.00558   0.01270  -0.01300
  17 5   C  1S          0.30886  -0.21135  -0.30736   0.19614   0.29820
  18        1PX        -0.01289  -0.06962  -0.00381  -0.15424   0.13269
  19        1PY         0.09789  -0.05803  -0.01538   0.02108  -0.00937
  20        1PZ         0.00005   0.00929  -0.00003   0.02078  -0.01700
  21 6   C  1S          0.27108  -0.30770  -0.21890  -0.20583   0.36503
  22        1PX        -0.07573   0.04747   0.05934  -0.07400  -0.05256
  23        1PY         0.05363  -0.06150   0.03791  -0.11877  -0.07025
  24        1PZ         0.00855  -0.00497  -0.00836   0.01162   0.00785
  25 7   H  1S          0.07168   0.06205   0.15813   0.00391   0.09346
  26 8   H  1S          0.06903  -0.08972   0.00251  -0.14659  -0.01259
  27 9   H  1S          0.08369  -0.05691   0.10337  -0.08357  -0.13412
  28 10  C  1S          0.25114   0.23714   0.43523   0.04107   0.27608
  29        1PX         0.01402  -0.09357   0.01426   0.05380  -0.19474
  30        1PY        -0.07541  -0.05474  -0.03656  -0.03481   0.00851
  31        1PZ        -0.00686  -0.00535  -0.00940   0.00450  -0.00374
  32 11  C  1S          0.24212   0.25596  -0.28212   0.20571  -0.21410
  33        1PX         0.03704  -0.06792   0.01393   0.15420   0.01467
  34        1PY         0.05496   0.06435   0.01277   0.00007   0.00110
  35        1PZ        -0.02028  -0.02319   0.01908   0.00606   0.00761
  36 12  H  1S          0.08418  -0.05291  -0.11576   0.07935   0.11247
  37 13  H  1S          0.06919  -0.08880  -0.07620  -0.07402   0.14650
  38 14  C  1S          0.21702   0.44430  -0.23461  -0.26893  -0.06919
  39        1PX         0.04028  -0.00523   0.05633   0.15969   0.02879
  40        1PY         0.00988   0.01947   0.12099  -0.02080   0.16153
  41        1PZ         0.00847  -0.00022   0.01128   0.04621   0.00638
  42 15  C  1S          0.21043   0.36823   0.20664  -0.13649   0.38397
  43        1PX         0.05889   0.03630   0.13632   0.06942   0.08294
  44        1PY        -0.03590  -0.07168   0.09746   0.04570   0.07875
  45        1PZ         0.00009  -0.00423   0.00937   0.01449   0.00619
  46 16  H  1S          0.05606   0.11515   0.06080  -0.06742   0.14494
  47 17  C  1S          0.10018   0.28282  -0.25565  -0.35279  -0.15143
  48        1PX         0.04436   0.09954  -0.06924  -0.06781  -0.03142
  49        1PY         0.01517   0.04090  -0.00278  -0.04468   0.02702
  50        1PZ         0.01466   0.03539  -0.02592  -0.02603  -0.01174
  51 18  H  1S          0.02968   0.08952  -0.07610  -0.12830  -0.03899
  52 19  H  1S          0.03067   0.08644  -0.09431  -0.11279  -0.07021
  53 20  H  1S          0.07841   0.08293  -0.12423   0.07015  -0.08663
  54 21  H  1S          0.08256   0.08806  -0.10199   0.07580  -0.07993
                           6         7         8         9        10
                           O         O         O         O         O
     Eigenvalues --    -1.00993  -0.88029  -0.84198  -0.81122  -0.68287
   1 1   C  1S          0.33143   0.04903  -0.15914   0.25940   0.18086
   2        1PX         0.05043  -0.10038  -0.08588   0.09568   0.15219
   3        1PY         0.00283   0.24028   0.15829   0.06891   0.15130
   4        1PZ        -0.00611   0.00767   0.00777  -0.01247  -0.02599
   5 2   C  1S          0.00724   0.22430   0.29771  -0.12018  -0.10871
   6        1PX         0.18866   0.16075  -0.01168   0.20530   0.17688
   7        1PY        -0.01301  -0.01470   0.16940  -0.02303   0.05345
   8        1PZ        -0.02189  -0.01944  -0.00187  -0.02331  -0.03116
   9 3   C  1S         -0.23725  -0.22300  -0.16495  -0.16036  -0.02730
  10        1PX        -0.05293   0.17340   0.10704  -0.13974  -0.25367
  11        1PY         0.00793  -0.12993   0.32687  -0.05647   0.07588
  12        1PZ         0.00846  -0.02025  -0.01830   0.02118   0.00577
  13 4   C  1S         -0.07201   0.15577  -0.27626   0.20765   0.00013
  14        1PX        -0.22645   0.13295   0.00999  -0.01611   0.05967
  15        1PY        -0.07204  -0.14877  -0.27536  -0.14092  -0.05869
  16        1PZ         0.04142  -0.01614   0.01025   0.01601  -0.05314
  17 5   C  1S         -0.24722   0.17330   0.28879  -0.01411   0.18642
  18        1PX         0.00401  -0.20969   0.05884  -0.23095  -0.11391
  19        1PY        -0.03111   0.01940  -0.17606   0.02834  -0.10520
  20        1PZ         0.00274   0.02532  -0.00198   0.03152  -0.00137
  21 6   C  1S          0.05745  -0.33401  -0.04174  -0.17086  -0.16897
  22        1PX         0.13341  -0.12048  -0.13254   0.06134  -0.04347
  23        1PY         0.13564   0.02218  -0.19516   0.16166   0.02602
  24        1PZ        -0.01832   0.01417   0.02037  -0.00948  -0.00215
  25 7   H  1S         -0.00916  -0.11940   0.17491   0.15808   0.06663
  26 8   H  1S          0.15820   0.01786  -0.07946   0.17765   0.21315
  27 9   H  1S          0.01040   0.09650   0.22233  -0.04448  -0.00080
  28 10  C  1S          0.00229  -0.24495   0.19399   0.24605   0.17000
  29        1PX        -0.10774  -0.23433   0.02315  -0.08100   0.18707
  30        1PY         0.00100   0.01237   0.15665   0.11120  -0.06395
  31        1PZ         0.00690  -0.00640   0.00288   0.00801  -0.00525
  32 11  C  1S          0.44857  -0.14246   0.19360  -0.00219  -0.17374
  33        1PX        -0.00859   0.08025  -0.08169   0.18731  -0.09540
  34        1PY         0.00320   0.01755  -0.14470  -0.10595   0.16275
  35        1PZ         0.02313  -0.00886   0.02516   0.00403  -0.12115
  36 12  H  1S         -0.08166   0.07686   0.21820  -0.00155   0.16114
  37 13  H  1S          0.03357  -0.19878  -0.00768  -0.10392  -0.11228
  38 14  C  1S         -0.00566   0.05812  -0.05453  -0.31579   0.28970
  39        1PX         0.26114  -0.00346   0.00790  -0.13300   0.02275
  40        1PY        -0.01597   0.22428  -0.13878  -0.10482  -0.05017
  41        1PZ         0.10231   0.00143   0.01867  -0.06990  -0.03454
  42 15  C  1S          0.09503   0.34567  -0.06603  -0.06600  -0.22391
  43        1PX         0.05570  -0.14406   0.06694   0.13427   0.15580
  44        1PY        -0.00081  -0.02635   0.11486   0.24399  -0.24059
  45        1PZ         0.02159  -0.01177   0.01363   0.01113  -0.01760
  46 16  H  1S          0.01359   0.19620  -0.01785   0.00149  -0.28310
  47 17  C  1S         -0.40915  -0.12914   0.01744   0.31673  -0.11138
  48        1PX         0.01243   0.00935  -0.00006  -0.16822   0.24074
  49        1PY        -0.02972   0.08698  -0.05943  -0.08555   0.04430
  50        1PZ         0.00674   0.00435   0.00448  -0.06609   0.06604
  51 18  H  1S         -0.18150  -0.02807  -0.01261   0.19055  -0.16827
  52 19  H  1S         -0.15277  -0.10197   0.04199   0.21177  -0.12306
  53 20  H  1S          0.16777  -0.07024   0.15971   0.04601  -0.13295
  54 21  H  1S          0.18862  -0.06716   0.10924  -0.00083  -0.16540
                          11        12        13        14        15
                           O         O         O         O         O
     Eigenvalues --    -0.64501  -0.61350  -0.57963  -0.56435  -0.55599
   1 1   C  1S         -0.01817  -0.02589   0.15401  -0.06610   0.00950
   2        1PX         0.25411  -0.17761   0.01573  -0.19753   0.18603
   3        1PY         0.10628   0.23025  -0.01972  -0.04597   0.24403
   4        1PZ        -0.03101   0.01478   0.03345   0.08419   0.05281
   5 2   C  1S          0.07520   0.06679  -0.13660   0.05334  -0.04090
   6        1PX         0.01067   0.26007  -0.07849   0.17088   0.11115
   7        1PY         0.28484  -0.04540  -0.26040   0.13237   0.02856
   8        1PZ        -0.00445  -0.03557   0.06181   0.05591   0.09366
   9 3   C  1S          0.05610  -0.04104   0.16728  -0.18482   0.06377
  10        1PX        -0.14545  -0.14384  -0.03104  -0.09929  -0.00515
  11        1PY         0.08530  -0.19741   0.16296   0.03900  -0.23550
  12        1PZ         0.02203   0.00937   0.08190   0.14441   0.18190
  13 4   C  1S          0.07748  -0.06373  -0.23362   0.09671   0.04052
  14        1PX        -0.25169  -0.09105   0.06762  -0.05743   0.08835
  15        1PY        -0.04207   0.22839   0.00442  -0.08935   0.27132
  16        1PZ         0.05785  -0.00119   0.12256   0.18834   0.18082
  17 5   C  1S         -0.01044   0.04059   0.13452  -0.05333   0.01972
  18        1PX        -0.02123   0.27210   0.03262   0.09058   0.12259
  19        1PY        -0.26469  -0.05054  -0.17854   0.26821  -0.06354
  20        1PZ         0.01835  -0.03699   0.07167   0.08758   0.10813
  21 6   C  1S          0.06941  -0.00695  -0.14429   0.09175  -0.03870
  22        1PX         0.26539  -0.21316  -0.15651  -0.14987   0.03675
  23        1PY        -0.23136  -0.18307   0.15801   0.06183  -0.24867
  24        1PZ        -0.02435   0.02736   0.05941   0.08445   0.08451
  25 7   H  1S         -0.14066  -0.22365  -0.11421   0.18498   0.12708
  26 8   H  1S          0.17472  -0.06848   0.08644  -0.19150   0.19643
  27 9   H  1S          0.22124   0.02192  -0.27429   0.14866   0.01188
  28 10  C  1S         -0.10654  -0.01942  -0.01471   0.10290  -0.01316
  29        1PX         0.12469  -0.21213   0.17100   0.10872  -0.01513
  30        1PY        -0.17110  -0.27383  -0.17425   0.14138   0.17889
  31        1PZ        -0.01195  -0.00032   0.04375   0.09162   0.13299
  32 11  C  1S         -0.01344   0.00614   0.06126   0.00587  -0.02239
  33        1PX         0.26762  -0.08091  -0.06762   0.15926  -0.12255
  34        1PY         0.05436   0.15297  -0.12980   0.19019   0.06773
  35        1PZ         0.02573   0.00922   0.29756   0.24967   0.28427
  36 12  H  1S          0.16937   0.02498   0.20271  -0.23903   0.04613
  37 13  H  1S          0.26866  -0.03991  -0.24173  -0.06842   0.11072
  38 14  C  1S         -0.09230  -0.08590  -0.07441   0.05339   0.01143
  39        1PX        -0.00505   0.22185  -0.01567  -0.04635  -0.17552
  40        1PY         0.24607  -0.05602   0.18380   0.16368  -0.17917
  41        1PZ        -0.02355   0.06327   0.13485   0.08396   0.13573
  42 15  C  1S          0.05228   0.01626   0.03753  -0.11670  -0.01713
  43        1PX        -0.10850   0.30250  -0.09180   0.01201  -0.16300
  44        1PY        -0.13984  -0.04641  -0.13319  -0.17873   0.22849
  45        1PZ        -0.02608   0.03762   0.04633   0.05538   0.12209
  46 16  H  1S          0.02969  -0.17211   0.01762  -0.15025   0.18606
  47 17  C  1S          0.06150   0.09167   0.01544   0.02025  -0.02153
  48        1PX        -0.18272  -0.19556  -0.20413  -0.09643   0.16183
  49        1PY         0.11548  -0.21057   0.10917   0.24125  -0.04396
  50        1PZ        -0.07082  -0.07729   0.00189   0.02296   0.15990
  51 18  H  1S          0.17933   0.06769   0.16654   0.16528  -0.14591
  52 19  H  1S         -0.01312   0.22061  -0.03289  -0.15468  -0.02240
  53 20  H  1S         -0.06328  -0.08411   0.03183  -0.23369  -0.14072
  54 21  H  1S         -0.00916  -0.00006   0.26369   0.16047   0.20471
                          16        17        18        19        20
                           O         O         O         O         O
     Eigenvalues --    -0.53552  -0.51381  -0.50446  -0.49367  -0.47879
   1 1   C  1S          0.03479  -0.00980   0.03951  -0.02673   0.00758
   2        1PX        -0.20798   0.26111   0.04977   0.08955  -0.19073
   3        1PY         0.19268   0.05032  -0.01195   0.11264  -0.12753
   4        1PZ        -0.04640  -0.12105  -0.09920  -0.23090  -0.28018
   5 2   C  1S         -0.03075  -0.07025  -0.04997   0.00810   0.02245
   6        1PX         0.21687   0.02386  -0.05517  -0.09907   0.03861
   7        1PY        -0.19510   0.34871  -0.01473  -0.10324   0.04035
   8        1PZ        -0.10435  -0.10931  -0.08164  -0.20620  -0.29981
   9 3   C  1S          0.03569   0.03718  -0.00656  -0.02437  -0.00610
  10        1PX        -0.16720  -0.21144   0.02750   0.19650  -0.16583
  11        1PY        -0.11072   0.02696   0.02455  -0.13719   0.04990
  12        1PZ        -0.09492  -0.09424  -0.09110  -0.23676  -0.22625
  13 4   C  1S         -0.00984  -0.02727   0.01305  -0.00166   0.01960
  14        1PX        -0.24687   0.20347  -0.12723   0.18403  -0.12378
  15        1PY         0.16323   0.05713   0.02989   0.05262  -0.04392
  16        1PZ        -0.10763  -0.13515  -0.11446  -0.18596  -0.09057
  17 5   C  1S         -0.03350   0.04996   0.04325  -0.00416  -0.00402
  18        1PX         0.25361   0.13361   0.06913  -0.10897  -0.07789
  19        1PY        -0.11243   0.36878  -0.04237   0.02642  -0.11066
  20        1PZ        -0.12466  -0.11723  -0.12421  -0.17263  -0.18598
  21 6   C  1S          0.00267   0.00871  -0.02851  -0.03022   0.02112
  22        1PX        -0.18348  -0.27653  -0.13013   0.13073  -0.00285
  23        1PY        -0.14381   0.00102   0.04097  -0.16670   0.12860
  24        1PZ        -0.04724  -0.05153  -0.08769  -0.21793  -0.27020
  25 7   H  1S          0.11279  -0.10485   0.26349   0.11740  -0.10753
  26 8   H  1S         -0.06845   0.21505   0.06833   0.10995  -0.15873
  27 9   H  1S         -0.13551   0.23752  -0.03483  -0.08077   0.06059
  28 10  C  1S          0.03641  -0.02928  -0.04456   0.03730  -0.00078
  29        1PX         0.13409   0.12288   0.22512  -0.17904   0.04154
  30        1PY         0.10701  -0.14353   0.31653   0.15855  -0.13052
  31        1PZ        -0.08284  -0.06721   0.01531  -0.07752  -0.10007
  32 11  C  1S          0.06425   0.03505   0.03303   0.02446  -0.03862
  33        1PX         0.14925  -0.15132  -0.06059  -0.18358   0.12744
  34        1PY        -0.15197  -0.22544   0.34904   0.01684   0.09858
  35        1PZ        -0.17858   0.02249  -0.12033   0.16374   0.32199
  36 12  H  1S          0.04119  -0.27518   0.04010  -0.01809   0.09011
  37 13  H  1S         -0.03555  -0.16520  -0.11541   0.16900  -0.03735
  38 14  C  1S         -0.03543  -0.05793   0.04345   0.03662  -0.03861
  39        1PX        -0.16529  -0.01834   0.34054   0.06041  -0.22669
  40        1PY         0.02170   0.02503   0.01748   0.02377  -0.05134
  41        1PZ        -0.19375   0.01923   0.15299   0.11321   0.07241
  42 15  C  1S         -0.05975   0.04415  -0.00252  -0.06457   0.00809
  43        1PX        -0.17176  -0.11525  -0.33138   0.20490  -0.04609
  44        1PY         0.09605   0.00902  -0.02100  -0.06856   0.09905
  45        1PZ        -0.11783  -0.03886   0.01996  -0.00999  -0.01026
  46 16  H  1S          0.12040   0.10567   0.20193  -0.20148   0.08158
  47 17  C  1S         -0.02084  -0.01871  -0.01535   0.00506   0.02231
  48        1PX         0.08964  -0.05032  -0.25995  -0.18359   0.18519
  49        1PY         0.31162   0.00446  -0.20523   0.27997  -0.13923
  50        1PZ        -0.03851  -0.00118  -0.07241   0.00393   0.16062
  51 18  H  1S          0.09657   0.02508   0.07019   0.25630  -0.21182
  52 19  H  1S         -0.25507   0.00143   0.19882  -0.19386   0.07674
  53 20  H  1S          0.18139   0.18038  -0.18317  -0.04985  -0.22770
  54 21  H  1S         -0.10002   0.06980  -0.10925   0.16171   0.23103
                          21        22        23        24        25
                           O         O         O         O         O
     Eigenvalues --    -0.45742  -0.44571  -0.42708  -0.41963  -0.37703
   1 1   C  1S         -0.01491  -0.01042   0.00698  -0.00413   0.00067
   2        1PX        -0.16860  -0.19716   0.10272   0.08531   0.04929
   3        1PY         0.26295  -0.12756   0.12956  -0.12452   0.00218
   4        1PZ        -0.01832   0.00427  -0.13118  -0.11375   0.25548
   5 2   C  1S         -0.00498   0.01269   0.01296  -0.00343   0.00310
   6        1PX         0.18929   0.20292  -0.16366  -0.08350  -0.03995
   7        1PY        -0.23724   0.12106  -0.14474   0.11988  -0.00627
   8        1PZ        -0.03857   0.02098   0.03131  -0.00495  -0.10394
   9 3   C  1S         -0.00957   0.00747   0.00767  -0.01947  -0.01000
  10        1PX        -0.09467  -0.20589   0.13967   0.14253  -0.00895
  11        1PY         0.09085  -0.10603   0.22209  -0.24157  -0.02111
  12        1PZ         0.00543   0.12689   0.10378   0.07586  -0.38223
  13 4   C  1S          0.01971  -0.00260   0.02168   0.01059   0.03461
  14        1PX         0.16761   0.13842  -0.19624  -0.10075  -0.11254
  15        1PY        -0.13819   0.10316  -0.22530   0.21443  -0.00945
  16        1PZ        -0.02879  -0.11597  -0.01701   0.00753  -0.16516
  17 5   C  1S         -0.04609  -0.00349  -0.00255  -0.02926  -0.01591
  18        1PX        -0.12614  -0.19805   0.10655   0.14197   0.07498
  19        1PY         0.18264  -0.11672   0.14305  -0.15822  -0.01269
  20        1PZ        -0.01489  -0.08754  -0.17307  -0.11034   0.18484
  21 6   C  1S          0.01622   0.01101   0.00760  -0.00194   0.00691
  22        1PX         0.15970   0.17025  -0.16740  -0.11554   0.01107
  23        1PY        -0.26744   0.13373  -0.14280   0.10408   0.00318
  24        1PZ        -0.05205  -0.11082  -0.16251  -0.12762   0.40345
  25 7   H  1S          0.08182  -0.02336  -0.13212   0.20595   0.02106
  26 8   H  1S         -0.06129  -0.22211   0.16122   0.04263   0.01838
  27 9   H  1S         -0.18772   0.14537  -0.16238   0.11478  -0.00396
  28 10  C  1S          0.05540   0.01680   0.00566  -0.01208   0.00575
  29        1PX         0.22903   0.07478  -0.07361  -0.12618  -0.03300
  30        1PY         0.00941  -0.07791  -0.13887   0.22522   0.03499
  31        1PZ         0.03646   0.29932   0.33544   0.19382  -0.23064
  32 11  C  1S         -0.04510  -0.02621   0.02389  -0.03698  -0.00503
  33        1PX         0.01376  -0.24248   0.20897   0.17363   0.07274
  34        1PY        -0.20939  -0.09354   0.10446  -0.25802  -0.02441
  35        1PZ         0.04399  -0.16377  -0.14737   0.00686  -0.07451
  36 12  H  1S         -0.17414   0.13367  -0.16637   0.12107  -0.00174
  37 13  H  1S          0.28052   0.06181  -0.01974  -0.14624  -0.02592
  38 14  C  1S          0.00910   0.00117  -0.01446   0.00170  -0.00745
  39        1PX        -0.00625   0.00027  -0.14345  -0.13395  -0.17805
  40        1PY         0.24616  -0.09165  -0.08736   0.31729   0.04071
  41        1PZ         0.06605   0.28961   0.17899   0.01043   0.41583
  42 15  C  1S          0.03954  -0.01574   0.00776   0.02713  -0.00370
  43        1PX        -0.13890  -0.09438   0.06672   0.07817   0.02676
  44        1PY        -0.26085   0.04139   0.07585  -0.30005  -0.03736
  45        1PZ         0.02147   0.33590   0.37934   0.14775  -0.01148
  46 16  H  1S         -0.03050   0.08487  -0.00275  -0.24048  -0.05554
  47 17  C  1S         -0.02151  -0.01934   0.03014   0.00532   0.00545
  48        1PX        -0.01775  -0.17131   0.02395   0.05092  -0.13934
  49        1PY        -0.27124   0.11779   0.05899  -0.14961  -0.02473
  50        1PZ         0.03368   0.16831   0.19823   0.05639   0.46593
  51 18  H  1S         -0.16618   0.14006  -0.00781  -0.15565  -0.02501
  52 19  H  1S          0.23484  -0.09756  -0.06319   0.14581   0.01538
  53 20  H  1S          0.12829   0.15527  -0.04395   0.19544   0.04723
  54 21  H  1S          0.03404  -0.13349  -0.15263   0.00046  -0.09136
                          26        27        28        29        30
                           O         O         V         V         V
     Eigenvalues --    -0.35359  -0.32015  -0.00632   0.01906   0.03680
   1 1   C  1S         -0.00083  -0.00135   0.00190  -0.00074  -0.00373
   2        1PX        -0.05563   0.02496   0.01798  -0.05889   0.03284
   3        1PY        -0.00712   0.00214   0.00433  -0.00866   0.00134
   4        1PZ        -0.44887   0.18604   0.16154  -0.48317   0.23222
   5 2   C  1S         -0.00179   0.00266  -0.00567   0.00256   0.00262
   6        1PX        -0.05708  -0.03017   0.03844   0.05794   0.01368
   7        1PY        -0.01014  -0.00556   0.00888   0.01092   0.00043
   8        1PZ        -0.50573  -0.21452   0.26596   0.49639   0.11970
   9 3   C  1S          0.00368   0.00049   0.00097  -0.00102  -0.00622
  10        1PX        -0.00860  -0.03980  -0.04318  -0.00191  -0.03451
  11        1PY        -0.00413  -0.00889  -0.00818   0.00174  -0.02306
  12        1PZ        -0.03780  -0.35784  -0.37237  -0.00627  -0.37635
  13 4   C  1S         -0.00388  -0.01310   0.01512   0.00514  -0.03589
  14        1PX         0.06379  -0.01721   0.02460  -0.07232   0.05839
  15        1PY         0.01434  -0.00518   0.00845  -0.01460   0.01905
  16        1PZ         0.42631  -0.30309   0.28343  -0.48867   0.11753
  17 5   C  1S         -0.00025   0.00337  -0.00660   0.00034   0.00812
  18        1PX         0.06439   0.00142   0.02402   0.06232   0.02511
  19        1PY         0.01299   0.00390  -0.00164   0.00919   0.01238
  20        1PZ         0.52841   0.06875   0.14158   0.49784   0.22830
  21 6   C  1S         -0.00062  -0.00230   0.00229   0.00139  -0.00689
  22        1PX         0.01159   0.04829  -0.05103  -0.00284  -0.04076
  23        1PY         0.00112   0.00633  -0.00753  -0.00006  -0.00246
  24        1PZ         0.07588   0.34354  -0.38736  -0.01269  -0.39863
  25 7   H  1S         -0.00005   0.00975   0.00818   0.00136   0.01418
  26 8   H  1S         -0.00080   0.00063  -0.00145   0.00098   0.00063
  27 9   H  1S          0.00186   0.00074   0.00020  -0.00289   0.00398
  28 10  C  1S         -0.00074   0.00033   0.00039  -0.00046  -0.00158
  29        1PX         0.00470   0.00727   0.00211  -0.00218   0.01331
  30        1PY        -0.00452  -0.01776   0.02188   0.00156  -0.02648
  31        1PZ         0.07333   0.37965  -0.37940  -0.02119   0.32502
  32 11  C  1S         -0.00383  -0.00171  -0.01321   0.00319   0.00890
  33        1PX        -0.01787   0.00960   0.01379  -0.01508   0.02775
  34        1PY        -0.01930   0.00039  -0.01437   0.00013   0.00074
  35        1PZ        -0.12221   0.10156   0.00490  -0.01722  -0.01631
  36 12  H  1S         -0.00016   0.00013   0.00203  -0.00150   0.00381
  37 13  H  1S          0.00165   0.00298  -0.00178  -0.00108   0.00422
  38 14  C  1S          0.02061  -0.01439   0.01179  -0.02386   0.00692
  39        1PX         0.04535   0.04567  -0.05104  -0.02875   0.15494
  40        1PY        -0.03025   0.01789  -0.01823   0.02385  -0.00746
  41        1PZ         0.00439  -0.23834   0.20212  -0.00259  -0.41468
  42 15  C  1S         -0.00020  -0.00144  -0.00133   0.00186  -0.00991
  43        1PX        -0.01069  -0.04005  -0.02882  -0.00321   0.00522
  44        1PY         0.00149  -0.02250  -0.02589  -0.00252  -0.00124
  45        1PZ         0.08199   0.41926   0.43103   0.02054  -0.11043
  46 16  H  1S          0.01175   0.01465  -0.00955  -0.00710   0.03761
  47 17  C  1S         -0.00800   0.01236   0.00589   0.00614  -0.00263
  48        1PX        -0.02030   0.14950   0.11669   0.00512  -0.15642
  49        1PY         0.01273   0.01401   0.01190   0.00368  -0.01558
  50        1PZ        -0.01480  -0.36285  -0.32178  -0.00228   0.45463
  51 18  H  1S          0.02636  -0.01253   0.00725  -0.01143   0.00436
  52 19  H  1S         -0.01286  -0.00284  -0.00837   0.00368  -0.00254
  53 20  H  1S          0.08163  -0.06518   0.05458  -0.05641  -0.03319
  54 21  H  1S         -0.13933   0.13876  -0.09577   0.09967   0.06618
                          31        32        33        34        35
                           V         V         V         V         V
     Eigenvalues --     0.07859   0.11122   0.12860   0.14003   0.14424
   1 1   C  1S          0.00532   0.01362   0.03595  -0.05817   0.01706
   2        1PX        -0.02369   0.03801   0.00270   0.14305   0.02567
   3        1PY         0.00371   0.02086   0.09493  -0.06305   0.06403
   4        1PZ        -0.19403   0.36891  -0.02838   0.00137   0.00770
   5 2   C  1S         -0.02230  -0.01943  -0.04627  -0.01324   0.00125
   6        1PX         0.03504  -0.03682   0.04858   0.13905   0.05272
   7        1PY         0.01251   0.00841   0.11056  -0.10750   0.10097
   8        1PZ         0.06488  -0.39525   0.02565  -0.03754  -0.02235
   9 3   C  1S          0.01506   0.02747   0.06021  -0.13584   0.01812
  10        1PX         0.01938   0.03698  -0.02994   0.29768   0.02598
  11        1PY         0.01036   0.04457   0.19030  -0.19056   0.12712
  12        1PZ         0.08440   0.43490  -0.05090   0.00920   0.01636
  13 4   C  1S         -0.04013  -0.00581  -0.14899  -0.19401   0.16581
  14        1PX         0.07519  -0.04419   0.10989   0.35095   0.04091
  15        1PY         0.03475   0.00642   0.24174   0.08708  -0.00684
  16        1PZ         0.07991  -0.34649   0.02626  -0.09590  -0.05980
  17 5   C  1S          0.00594   0.00973   0.11556   0.01071  -0.13676
  18        1PX        -0.02184   0.03545  -0.04340   0.16544   0.08522
  19        1PY         0.00548   0.01516   0.18538   0.07415  -0.04842
  20        1PZ        -0.20767   0.33903  -0.02999   0.00509   0.01990
  21 6   C  1S         -0.00903  -0.00449  -0.08307  -0.07653   0.09603
  22        1PX         0.04360  -0.04303   0.05318   0.15588   0.01252
  23        1PY         0.01284   0.00021   0.12539   0.03051  -0.02183
  24        1PZ         0.24877  -0.34679   0.01721  -0.03866  -0.01875
  25 7   H  1S          0.01306  -0.01654  -0.19282  -0.03027  -0.31392
  26 8   H  1S         -0.01254  -0.01351  -0.08478  -0.06302  -0.06274
  27 9   H  1S          0.00310  -0.00502  -0.07983   0.10724  -0.10586
  28 10  C  1S         -0.02703  -0.02534   0.01378   0.21386   0.10655
  29        1PX         0.03187  -0.00662  -0.09360   0.22707  -0.01844
  30        1PY         0.03482   0.05118   0.17914  -0.20567   0.21686
  31        1PZ        -0.42412  -0.24641   0.02874  -0.01292   0.01329
  32 11  C  1S         -0.00799   0.00954   0.19265   0.16141  -0.26064
  33        1PX         0.08137  -0.02763   0.00083   0.43078   0.20731
  34        1PY        -0.01847   0.00717   0.38901   0.14095  -0.18703
  35        1PZ        -0.03706  -0.11215  -0.10245  -0.06369   0.15899
  36 12  H  1S          0.00948   0.00076   0.09286   0.09415   0.07390
  37 13  H  1S          0.00587   0.01005   0.12796  -0.04155  -0.11267
  38 14  C  1S          0.00709  -0.03987  -0.05992  -0.02129   0.44125
  39        1PX         0.18530  -0.01946  -0.13705   0.05116   0.21986
  40        1PY        -0.02146   0.04328   0.38449  -0.01573   0.09037
  41        1PZ        -0.43435  -0.06691  -0.04066   0.10914   0.06894
  42 15  C  1S          0.01395   0.03185  -0.06470  -0.13530  -0.23914
  43        1PX        -0.00321  -0.00705  -0.04204   0.10064   0.11109
  44        1PY        -0.03513   0.00893   0.27337  -0.11116   0.28090
  45        1PZ         0.50961   0.17292   0.01305  -0.02606   0.01839
  46 16  H  1S          0.02546  -0.04689  -0.16797   0.28393   0.11833
  47 17  C  1S          0.01916   0.01768   0.04560   0.06633  -0.19808
  48        1PX        -0.09829  -0.01042  -0.03644   0.08451  -0.02293
  49        1PY        -0.01222   0.01627   0.21052   0.00877  -0.00345
  50        1PZ         0.35543   0.03454  -0.00647  -0.02124  -0.00151
  51 18  H  1S          0.01129  -0.02891  -0.22845  -0.01224   0.16042
  52 19  H  1S         -0.02243   0.00526   0.18277  -0.02867   0.16443
  53 20  H  1S         -0.03588  -0.07522   0.16626   0.01685   0.13192
  54 21  H  1S          0.09924   0.14754  -0.00646  -0.01108   0.04113
                          36        37        38        39        40
                           V         V         V         V         V
     Eigenvalues --     0.14715   0.14972   0.15429   0.16367   0.16596
   1 1   C  1S          0.20015   0.04466  -0.10038   0.04735   0.38965
   2        1PX         0.03603  -0.07784  -0.31010   0.14131  -0.04387
   3        1PY         0.10452  -0.23344   0.02327  -0.03856  -0.12631
   4        1PZ        -0.00960   0.01308   0.04747   0.00240   0.00559
   5 2   C  1S         -0.25956  -0.09402  -0.07708   0.19810  -0.21058
   6        1PX         0.12389  -0.06783  -0.21414  -0.04636  -0.18430
   7        1PY         0.09527  -0.27917  -0.03374   0.05710  -0.03254
   8        1PZ        -0.00913   0.01371   0.01141  -0.02523   0.02600
   9 3   C  1S          0.42118   0.10011  -0.06622  -0.04742  -0.19369
  10        1PX        -0.04281  -0.08105  -0.11124  -0.11502   0.13375
  11        1PY         0.04987  -0.27323  -0.02772  -0.00115   0.16000
  12        1PZ        -0.01229   0.02221   0.04374   0.07225  -0.02199
  13 4   C  1S         -0.28227  -0.16536  -0.14819  -0.04774   0.25043
  14        1PX         0.07639  -0.04308  -0.07170  -0.17089  -0.00784
  15        1PY        -0.07341  -0.22536   0.12067   0.07249   0.13037
  16        1PZ        -0.02729   0.01946  -0.04745  -0.08282  -0.00712
  17 5   C  1S          0.16520   0.13657  -0.06063   0.26779   0.05076
  18        1PX        -0.00757  -0.08518  -0.17716  -0.02350   0.19665
  19        1PY         0.00261  -0.22041   0.20993  -0.03054  -0.08758
  20        1PZ         0.00750   0.01057   0.04360   0.05380  -0.01901
  21 6   C  1S         -0.10950  -0.09619  -0.12629  -0.06435  -0.35659
  22        1PX         0.02432  -0.04817  -0.30579   0.12158  -0.07392
  23        1PY         0.03693  -0.19794   0.18980   0.00261  -0.15608
  24        1PZ        -0.00530   0.01159   0.02159  -0.04072   0.01097
  25 7   H  1S          0.14093  -0.03588   0.06105   0.23624  -0.22463
  26 8   H  1S         -0.25557   0.12046   0.36182  -0.14531  -0.22861
  27 9   H  1S          0.11073   0.37370   0.12632  -0.20955   0.22604
  28 10  C  1S         -0.27743   0.08661  -0.03743  -0.14168   0.12085
  29        1PX        -0.15328  -0.07159  -0.04217  -0.06886   0.15052
  30        1PY         0.12697  -0.03338  -0.02681  -0.11630   0.10436
  31        1PZ         0.04638  -0.02900  -0.01327  -0.04042   0.01450
  32 11  C  1S          0.06435   0.02981  -0.05454  -0.11692  -0.10443
  33        1PX         0.34836  -0.04165   0.18240  -0.01465  -0.09819
  34        1PY        -0.11063   0.00862   0.00267   0.20040   0.06713
  35        1PZ         0.01041  -0.02686   0.13363   0.38974   0.05436
  36 12  H  1S         -0.14705  -0.34992   0.22273  -0.25467  -0.09814
  37 13  H  1S          0.10463  -0.00131   0.45621  -0.03653   0.24557
  38 14  C  1S          0.08417   0.13485   0.07904  -0.02078  -0.06845
  39        1PX         0.11636  -0.01603   0.09711   0.10316  -0.00498
  40        1PY        -0.13470   0.21603  -0.03720   0.02868  -0.05535
  41        1PZ         0.10234  -0.02263   0.03499  -0.04338  -0.02293
  42 15  C  1S          0.13587  -0.21991  -0.08931  -0.11911   0.09289
  43        1PX         0.03206  -0.01818   0.06370   0.14496   0.00390
  44        1PY         0.06632   0.16701  -0.02141  -0.06050  -0.06937
  45        1PZ        -0.04474   0.03727   0.00124   0.03120  -0.00544
  46 16  H  1S         -0.14222   0.07110   0.13561   0.23418  -0.02776
  47 17  C  1S         -0.00097  -0.07921  -0.01714   0.06227   0.04925
  48        1PX         0.07558  -0.07962   0.05238   0.05135   0.02237
  49        1PY        -0.11485   0.17181  -0.05344   0.01791  -0.11362
  50        1PZ        -0.00986  -0.01168   0.01572   0.05684   0.01423
  51 18  H  1S          0.13582  -0.10606   0.08784  -0.01487   0.04539
  52 19  H  1S         -0.09369   0.22206  -0.02537  -0.02661  -0.14050
  53 20  H  1S         -0.10409  -0.02717   0.11452   0.40465   0.14607
  54 21  H  1S         -0.04292   0.00186  -0.06535  -0.23216   0.02595
                          41        42        43        44        45
                           V         V         V         V         V
     Eigenvalues --     0.17089   0.17395   0.17602   0.17992   0.18696
   1 1   C  1S         -0.07353   0.19181   0.06759   0.04257   0.03928
   2        1PX        -0.11158   0.05469  -0.12401   0.04868   0.16121
   3        1PY         0.02046   0.22484   0.04855  -0.00944  -0.06859
   4        1PZ         0.02357  -0.00970   0.00533  -0.00374  -0.01713
   5 2   C  1S         -0.21154  -0.22238  -0.13353  -0.05974   0.08898
   6        1PX         0.12363  -0.01574  -0.02578  -0.02108  -0.13015
   7        1PY        -0.11932   0.13613   0.04797  -0.13863  -0.30930
   8        1PZ        -0.02614  -0.00425   0.01753   0.00145   0.01906
   9 3   C  1S          0.12349   0.09187   0.06457  -0.04261  -0.05483
  10        1PX         0.10922   0.20292  -0.00259   0.01226  -0.27637
  11        1PY         0.05408   0.00676   0.11212   0.05786   0.05155
  12        1PZ         0.01851  -0.01476  -0.03933   0.00777   0.03975
  13 4   C  1S          0.04291   0.10544   0.06096   0.05201   0.02753
  14        1PX         0.11532  -0.07353   0.10697   0.03607  -0.03666
  15        1PY        -0.12307  -0.14178  -0.05443  -0.02435  -0.04653
  16        1PZ        -0.09925   0.00745   0.05616  -0.01609  -0.00424
  17 5   C  1S         -0.24413  -0.17727  -0.14820  -0.08773  -0.03864
  18        1PX        -0.08053   0.02824  -0.05853   0.09068   0.22465
  19        1PY        -0.05680   0.05208  -0.10326   0.12655   0.35804
  20        1PZ         0.05171  -0.00230  -0.01875  -0.00749  -0.03205
  21 6   C  1S          0.23455   0.02478   0.11898  -0.01675  -0.12214
  22        1PX        -0.03659  -0.15829  -0.06049   0.06290   0.21204
  23        1PY        -0.15619   0.05610  -0.12240  -0.07030  -0.07505
  24        1PZ        -0.01128   0.01773   0.02228  -0.00939  -0.02633
  25 7   H  1S         -0.07234   0.16608   0.25078   0.24655   0.13692
  26 8   H  1S          0.14429  -0.26305   0.03393  -0.06596  -0.12875
  27 9   H  1S          0.24877   0.04912   0.05624   0.15646   0.19917
  28 10  C  1S         -0.05388  -0.07193  -0.21496  -0.10463  -0.06445
  29        1PX         0.11304   0.00354  -0.03293  -0.00042  -0.19771
  30        1PY         0.10266  -0.13805  -0.10754  -0.20900  -0.07963
  31        1PZ        -0.00097  -0.01261   0.02457  -0.01824  -0.01403
  32 11  C  1S          0.07153   0.10823  -0.31432  -0.04163  -0.06407
  33        1PX        -0.01816  -0.21281   0.05993  -0.03012   0.03496
  34        1PY         0.17958  -0.16333   0.24025   0.17382  -0.10471
  35        1PZ         0.37013   0.09499  -0.31321   0.02802   0.04500
  36 12  H  1S          0.12291   0.18493   0.00983   0.17887   0.33803
  37 13  H  1S         -0.24241   0.12054  -0.11221  -0.06667  -0.08753
  38 14  C  1S         -0.09478  -0.01281  -0.01294  -0.05161   0.17535
  39        1PX         0.10613  -0.01249   0.03249  -0.12477   0.03492
  40        1PY         0.01441   0.07019   0.03704  -0.06708  -0.00736
  41        1PZ        -0.05341  -0.03199   0.10088  -0.06368   0.00015
  42 15  C  1S          0.16547  -0.13804  -0.04016   0.10504  -0.08243
  43        1PX         0.00900   0.22283   0.18832  -0.08202  -0.13183
  44        1PY         0.07877  -0.08717   0.01176   0.04310   0.10897
  45        1PZ         0.01931   0.02332  -0.02938   0.01025   0.00276
  46 16  H  1S         -0.16113   0.30395   0.15271  -0.16430  -0.07496
  47 17  C  1S          0.18363   0.01558   0.13384  -0.40312   0.11715
  48        1PX         0.01696  -0.09458  -0.03080   0.24585  -0.25597
  49        1PY        -0.01801   0.27360   0.01912   0.11471  -0.05554
  50        1PZ         0.04892  -0.01340  -0.05080   0.09760  -0.08377
  51 18  H  1S         -0.10615  -0.23186  -0.14164   0.41563  -0.22691
  52 19  H  1S         -0.15400   0.20676  -0.10003   0.43916  -0.17786
  53 20  H  1S          0.22106  -0.18721   0.28547   0.14566  -0.01053
  54 21  H  1S         -0.34084  -0.18542   0.49213   0.01921  -0.00307
                          46        47        48        49        50
                           V         V         V         V         V
     Eigenvalues --     0.18757   0.19593   0.19605   0.20586   0.20724
   1 1   C  1S          0.11566   0.07381  -0.21714  -0.13798  -0.12938
   2        1PX        -0.28348  -0.11667   0.09936  -0.24433  -0.11479
   3        1PY        -0.21464   0.03894  -0.16194   0.22432  -0.15578
   4        1PZ         0.03985   0.01062  -0.01242   0.02719   0.01738
   5 2   C  1S          0.09258  -0.08370   0.04502  -0.21791  -0.04036
   6        1PX        -0.16618  -0.13823   0.26132   0.00829   0.25572
   7        1PY         0.18683  -0.09983  -0.23139  -0.02211   0.05582
   8        1PZ         0.01343   0.02453  -0.01782  -0.00281  -0.03216
   9 3   C  1S         -0.12928   0.00177   0.00714   0.01217   0.16463
  10        1PX        -0.19576  -0.17790   0.04727   0.12314   0.08163
  11        1PY         0.15066   0.18764   0.11674   0.19716   0.12911
  12        1PZ         0.02293   0.00151  -0.03233  -0.01141  -0.01308
  13 4   C  1S          0.13099  -0.04779   0.06025   0.07805   0.15550
  14        1PX         0.35683  -0.05381  -0.22312  -0.03619   0.09749
  15        1PY         0.10711   0.20893   0.07752   0.13272  -0.19173
  16        1PZ        -0.06412   0.02623   0.05193  -0.01734   0.00075
  17 5   C  1S         -0.06711   0.07914   0.15864   0.21475  -0.01880
  18        1PX         0.18042  -0.14390   0.08549   0.16317   0.34991
  19        1PY        -0.15619   0.15866   0.11512  -0.06310  -0.05668
  20        1PZ        -0.01410   0.00500  -0.02308  -0.01249  -0.04439
  21 6   C  1S         -0.13749   0.10766  -0.11961   0.03476  -0.18262
  22        1PX         0.06904   0.20271   0.10151   0.31543   0.09885
  23        1PY        -0.21534  -0.20799   0.12745   0.24066   0.12150
  24        1PZ        -0.00717  -0.01737  -0.01082  -0.04559  -0.01403
  25 7   H  1S          0.16485  -0.13774  -0.00962  -0.01819   0.12496
  26 8   H  1S          0.19918   0.02295   0.11954   0.19274   0.20076
  27 9   H  1S         -0.19907   0.14996   0.11306   0.15400  -0.04269
  28 10  C  1S         -0.17579  -0.04341  -0.23737   0.03849  -0.09210
  29        1PX         0.00908  -0.16276   0.34233  -0.11249  -0.11747
  30        1PY        -0.05330   0.25108   0.15359   0.00912  -0.07006
  31        1PZ         0.00564   0.01817   0.03627  -0.00063  -0.00657
  32 11  C  1S          0.17961   0.15028  -0.12042  -0.05721   0.11812
  33        1PX         0.16986  -0.07252  -0.08246   0.06553  -0.20631
  34        1PY        -0.12975  -0.05906  -0.16672   0.00877   0.06661
  35        1PZ         0.03172  -0.09196  -0.04170   0.06752  -0.00791
  36 12  H  1S         -0.05349   0.05626  -0.00888  -0.16605   0.01102
  37 13  H  1S         -0.05728  -0.29313   0.07979  -0.09224   0.11312
  38 14  C  1S         -0.00966  -0.16505  -0.05715   0.10467   0.05019
  39        1PX         0.12344  -0.01376   0.18900  -0.19417  -0.19040
  40        1PY        -0.03737   0.13284   0.00847  -0.31205   0.30815
  41        1PZ         0.05836   0.02504   0.09681  -0.07829  -0.08050
  42 15  C  1S          0.08086  -0.14707   0.22425   0.02188  -0.16554
  43        1PX         0.05192   0.20340   0.35604  -0.05481   0.11602
  44        1PY         0.07637  -0.24122   0.12935  -0.21387   0.09396
  45        1PZ        -0.00519  -0.00740   0.00249  -0.00884   0.02770
  46 16  H  1S         -0.06256   0.33239   0.00105   0.05296   0.12590
  47 17  C  1S          0.05153   0.00127   0.09300  -0.14624  -0.05045
  48        1PX         0.01935   0.24343   0.11954  -0.30863   0.01843
  49        1PY         0.23255  -0.08965   0.21384   0.10936  -0.33737
  50        1PZ         0.00553   0.06750   0.03159  -0.09886   0.00555
  51 18  H  1S         -0.13939   0.19086  -0.08651  -0.14389   0.19329
  52 19  H  1S          0.15589  -0.01873   0.11907   0.11490  -0.20203
  53 20  H  1S         -0.17910  -0.16768  -0.05434   0.06785  -0.04333
  54 21  H  1S         -0.14048  -0.03224   0.08203  -0.01002  -0.07091
                          51        52        53        54
                           V         V         V         V
     Eigenvalues --     0.20890   0.21234   0.22147   0.22576
   1 1   C  1S         -0.02194   0.06018  -0.13012   0.10835
   2        1PX        -0.11653  -0.05994   0.15953  -0.27724
   3        1PY         0.43679   0.13149   0.04834  -0.12274
   4        1PZ         0.00574   0.00476  -0.01936   0.03630
   5 2   C  1S         -0.05128  -0.09164  -0.03816  -0.15623
   6        1PX        -0.38072  -0.12377   0.15133   0.10005
   7        1PY        -0.00259   0.00724  -0.20690   0.28697
   8        1PZ         0.04731   0.01436  -0.01615  -0.01949
   9 3   C  1S         -0.09267  -0.22879  -0.08511   0.09166
  10        1PX        -0.13832   0.17588   0.09002   0.32710
  11        1PY        -0.23512   0.03845   0.35923  -0.09408
  12        1PZ         0.01808  -0.01906  -0.01137  -0.03108
  13 4   C  1S          0.04038  -0.02488   0.18265  -0.07966
  14        1PX         0.05609  -0.10312   0.06115  -0.30437
  15        1PY        -0.21360   0.32659   0.25733  -0.02135
  16        1PZ         0.00915   0.00654  -0.01269   0.04354
  17 5   C  1S          0.05644   0.11618  -0.00658   0.13815
  18        1PX         0.27463  -0.24003  -0.07983   0.00552
  19        1PY        -0.09081   0.00329  -0.21279   0.27761
  20        1PZ        -0.03638   0.02866   0.01349  -0.00815
  21 6   C  1S          0.07036   0.12590   0.08523  -0.11210
  22        1PX         0.22782   0.03640  -0.14204   0.21943
  23        1PY         0.33739  -0.06116   0.14093  -0.19144
  24        1PZ        -0.03269  -0.00289   0.01518  -0.02325
  25 7   H  1S         -0.02059   0.19915   0.12920   0.02892
  26 8   H  1S         -0.02429  -0.03156  -0.03495   0.13567
  27 9   H  1S          0.07276   0.05939   0.14454  -0.10230
  28 10  C  1S          0.01924  -0.09361   0.08472   0.17455
  29        1PX         0.11655   0.28640  -0.31329  -0.06965
  30        1PY        -0.01621  -0.27105  -0.21197  -0.18889
  31        1PZ        -0.00150  -0.00980  -0.01031  -0.01035
  32 11  C  1S         -0.02143   0.10373   0.00426  -0.13344
  33        1PX        -0.07356   0.01167   0.01207  -0.06245
  34        1PY        -0.01100  -0.11167  -0.12998  -0.09611
  35        1PZ        -0.02394  -0.01194  -0.00657   0.01076
  36 12  H  1S         -0.06961  -0.09151  -0.14316   0.09770
  37 13  H  1S         -0.02120  -0.12348   0.08240  -0.12449
  38 14  C  1S         -0.10993   0.22953  -0.07969  -0.05378
  39        1PX         0.21676  -0.14417   0.27861   0.24765
  40        1PY         0.18286   0.18726   0.10455   0.04810
  41        1PZ         0.07317  -0.03691   0.08981   0.07230
  42 15  C  1S          0.01313   0.03629  -0.18287  -0.08682
  43        1PX        -0.01547   0.13442  -0.29962  -0.24834
  44        1PY         0.14640   0.36422   0.01568   0.05144
  45        1PZ         0.00173   0.03479  -0.02537  -0.01701
  46 16  H  1S         -0.08176  -0.10612  -0.05458  -0.09652
  47 17  C  1S          0.13935  -0.06703   0.14891   0.12037
  48        1PX         0.24628  -0.14076   0.19977   0.14310
  49        1PY         0.00773  -0.23370   0.05929   0.07386
  50        1PZ         0.08484  -0.05747   0.07082   0.05413
  51 18  H  1S          0.05743   0.06230  -0.00267  -0.02123
  52 19  H  1S         -0.03937  -0.14195  -0.01532  -0.00076
  53 20  H  1S         -0.00449  -0.12469  -0.07446   0.01711
  54 21  H  1S          0.02405  -0.06057  -0.00781   0.05401
     Density Matrix:
                           1         2         3         4         5
   1 1   C  1S          1.20790
   2        1PX         0.06105   0.98241
   3        1PY         0.02288   0.02450   0.93393
   4        1PZ        -0.00731   0.00269  -0.00181   1.00746
   5 2   C  1S          0.28768  -0.38148   0.29701   0.04214   1.20778
   6        1PX         0.36945  -0.33420   0.36709   0.11332   0.01605
   7        1PY        -0.30210   0.37524  -0.17519  -0.02844   0.06418
   8        1PZ        -0.03730   0.11310  -0.02745   0.65606  -0.00256
   9 3   C  1S         -0.01483   0.03081  -0.01956  -0.00475   0.29610
  10        1PX        -0.02498   0.02906  -0.03181  -0.00352   0.43036
  11        1PY        -0.01124   0.02903  -0.00546  -0.00216   0.17642
  12        1PZ         0.00271  -0.00384   0.00328  -0.00645  -0.05413
  13 4   C  1S         -0.02459   0.01510   0.00809   0.00115  -0.01695
  14        1PX        -0.01565   0.00136   0.01273  -0.04667  -0.00474
  15        1PY        -0.00484   0.01028  -0.01855  -0.01102  -0.03197
  16        1PZ         0.00217  -0.04047  -0.00614  -0.31819   0.00125
  17 5   C  1S         -0.01144   0.00759   0.02808  -0.00183  -0.02288
  18        1PX        -0.02600   0.00966   0.04885  -0.00251  -0.00707
  19        1PY        -0.01405  -0.01259   0.01827   0.00064  -0.01477
  20        1PZ         0.00345  -0.00231  -0.00636  -0.00727  -0.00048
  21 6   C  1S          0.28565  -0.07236  -0.47543   0.01777  -0.01137
  22        1PX         0.06716   0.11145  -0.10887   0.06950  -0.00097
  23        1PY         0.47552  -0.10804  -0.62832   0.03547  -0.02885
  24        1PZ        -0.01647   0.07006   0.03576   0.65540   0.00054
  25 7   H  1S          0.00100  -0.00107  -0.00102   0.00048  -0.01222
  26 8   H  1S          0.56262   0.73390   0.29562  -0.09525  -0.04741
  27 9   H  1S         -0.04523   0.05370  -0.03988  -0.00731   0.55934
  28 10  C  1S          0.02607  -0.03360   0.02388   0.00409  -0.03339
  29        1PX         0.03086  -0.03580   0.02924   0.00283  -0.03408
  30        1PY        -0.01912   0.02689  -0.01928  -0.00259   0.01240
  31        1PZ        -0.00048  -0.00410  -0.00100  -0.02752  -0.00059
  32 11  C  1S          0.00226  -0.00166   0.00105   0.00215   0.01917
  33        1PX         0.00482  -0.00302  -0.00126  -0.00030   0.03479
  34        1PY         0.00359  -0.00158  -0.00137   0.00353   0.01667
  35        1PZ        -0.00093   0.00315  -0.00032   0.01920  -0.00789
  36 12  H  1S          0.04787  -0.01186  -0.07180   0.00176   0.00556
  37 13  H  1S         -0.04541   0.01192   0.06644  -0.00333   0.04850
  38 14  C  1S         -0.00134   0.00032  -0.00092  -0.01130   0.00268
  39        1PX        -0.00109  -0.00061  -0.00031  -0.01662   0.00297
  40        1PY        -0.00080   0.00313  -0.00158   0.01122  -0.00049
  41        1PZ        -0.00013   0.00046   0.00021   0.00400  -0.00002
  42 15  C  1S         -0.00652   0.00858  -0.00552  -0.00104   0.02304
  43        1PX        -0.00969   0.01140  -0.00887  -0.00090   0.03232
  44        1PY        -0.00180   0.00361  -0.00217  -0.00136   0.00815
  45        1PZ        -0.00319   0.00480  -0.00297   0.00063   0.01322
  46 16  H  1S          0.00754  -0.01017   0.00750  -0.00157  -0.01358
  47 17  C  1S         -0.00001   0.00064  -0.00045   0.00309   0.00292
  48        1PX        -0.00002   0.00076  -0.00031   0.00458   0.00227
  49        1PY        -0.00023   0.00037  -0.00022   0.00018   0.00094
  50        1PZ         0.00105  -0.00117   0.00023  -0.00072   0.00161
  51 18  H  1S         -0.00039  -0.00037   0.00009  -0.00495  -0.00017
  52 19  H  1S          0.00014   0.00019   0.00001   0.00178  -0.00077
  53 20  H  1S         -0.00169  -0.00175  -0.00096  -0.02848  -0.01005
  54 21  H  1S         -0.00118   0.00768   0.00117   0.05162  -0.00349
                           6         7         8         9        10
   6        1PX         0.91755
   7        1PY         0.00584   0.99188
   8        1PZ         0.00934  -0.00007   0.99443
   9 3   C  1S         -0.45450  -0.18136   0.06105   1.18347
  10        1PX        -0.51556  -0.25206   0.13944  -0.00448   0.92855
  11        1PY        -0.25700   0.01562   0.05053   0.01181  -0.00053
  12        1PZ         0.14394   0.04577   0.62942   0.00526   0.00695
  13 4   C  1S          0.03295   0.01620  -0.00522   0.29551  -0.07789
  14        1PX         0.00688  -0.01503   0.00047   0.06096   0.10674
  15        1PY         0.04897   0.01898  -0.00873   0.47351  -0.11077
  16        1PZ        -0.00198   0.00078   0.00258  -0.01694   0.06264
  17 5   C  1S         -0.00190   0.01605   0.00116  -0.01760   0.00542
  18        1PX        -0.02496   0.00659  -0.04003   0.02795  -0.00214
  19        1PY         0.00140   0.01024  -0.00570  -0.02533   0.02165
  20        1PZ        -0.03355  -0.00785  -0.32020  -0.00177   0.00005
  21 6   C  1S         -0.02083   0.02074   0.00201  -0.02520  -0.01404
  22        1PX         0.00033   0.01828   0.00022   0.01217  -0.00647
  23        1PY        -0.04341   0.02695   0.00434  -0.01213  -0.01899
  24        1PZ         0.00074  -0.00221   0.00158  -0.00265  -0.03500
  25 7   H  1S          0.01135   0.00700  -0.01015  -0.04348   0.06138
  26 8   H  1S         -0.04805   0.04496   0.00411   0.05097   0.06536
  27 9   H  1S          0.11365   0.79032  -0.03295  -0.04272  -0.06692
  28 10  C  1S          0.03370  -0.00078  -0.00585   0.26848  -0.35282
  29        1PX         0.03262   0.02082  -0.00737   0.36834  -0.37164
  30        1PY        -0.03786  -0.01523   0.00355  -0.29910   0.37156
  31        1PZ         0.00381  -0.00258   0.00166  -0.01492   0.03239
  32 11  C  1S         -0.02848  -0.01303   0.00504  -0.01771   0.00584
  33        1PX        -0.05259  -0.02175  -0.00050  -0.03759   0.01226
  34        1PY        -0.02240  -0.00668   0.00612  -0.01754  -0.01165
  35        1PZ         0.01120   0.00467  -0.00895   0.00463  -0.00294
  36 12  H  1S          0.00001  -0.00418  -0.00067   0.04886  -0.01201
  37 13  H  1S          0.05540  -0.04667  -0.00490   0.00436   0.00443
  38 14  C  1S         -0.00496  -0.00362   0.00119  -0.02544   0.02174
  39        1PX        -0.00379  -0.00243   0.00206  -0.01621   0.01176
  40        1PY        -0.00238  -0.00241   0.00068  -0.01235   0.01888
  41        1PZ        -0.00010  -0.00013   0.00032  -0.00542   0.00026
  42 15  C  1S         -0.02724  -0.00604   0.00944  -0.01453   0.02117
  43        1PX        -0.03415  -0.01274   0.02128  -0.03571   0.03272
  44        1PY        -0.01221  -0.00184   0.01216  -0.00674   0.02144
  45        1PZ        -0.03636  -0.00783  -0.15270  -0.00439   0.00773
  46 16  H  1S          0.01805   0.00680  -0.00520   0.05693  -0.06722
  47 17  C  1S         -0.00411  -0.00107  -0.00242   0.00111  -0.00220
  48        1PX        -0.00530  -0.00086  -0.01998   0.00523  -0.00541
  49        1PY        -0.00151  -0.00038  -0.00292   0.00162  -0.00065
  50        1PZ         0.00307  -0.00008   0.04896   0.00131  -0.00243
  51 18  H  1S          0.00084   0.00024   0.00005  -0.00112   0.00096
  52 19  H  1S          0.00050  -0.00022   0.00167  -0.00267   0.00308
  53 20  H  1S          0.01393   0.00585  -0.00131   0.03578  -0.00127
  54 21  H  1S          0.00488   0.00186  -0.00278   0.00927  -0.00834
                          11        12        13        14        15
  11        1PY         0.92366
  12        1PZ         0.00002   1.00957
  13 4   C  1S         -0.47058   0.01441   1.20013
  14        1PX        -0.09465   0.07685  -0.02576   0.94072
  15        1PY        -0.61901   0.04749  -0.01661   0.00483   0.92722
  16        1PZ         0.04791   0.61905  -0.00097   0.00762  -0.00111
  17 5   C  1S          0.03146  -0.00049   0.29756   0.36220  -0.29630
  18        1PX        -0.04328   0.00128  -0.38700  -0.32331   0.37189
  19        1PY         0.02730  -0.00264   0.30603   0.36281  -0.17254
  20        1PZ         0.00357   0.00629   0.03773   0.12644  -0.02415
  21 6   C  1S          0.00928   0.00088  -0.01396  -0.02107   0.01756
  22        1PX        -0.01784  -0.03764   0.03463   0.02646  -0.03825
  23        1PY        -0.00998  -0.00198   0.00909   0.02220  -0.00309
  24        1PZ        -0.00882  -0.31896  -0.00343  -0.00413   0.00704
  25 7   H  1S         -0.04072  -0.00338   0.04256   0.00782   0.06066
  26 8   H  1S          0.02837  -0.00816   0.00418   0.00453   0.00077
  27 9   H  1S         -0.01856   0.00895   0.04802   0.00785   0.06992
  28 10  C  1S          0.28111   0.02761  -0.01974  -0.00129  -0.03171
  29        1PX         0.36636   0.03939  -0.02736  -0.00215  -0.04552
  30        1PY        -0.19619  -0.03382   0.02631   0.01759   0.03087
  31        1PZ        -0.01678   0.26418   0.00099  -0.00190   0.00411
  32 11  C  1S          0.03009  -0.00415   0.23342  -0.37477  -0.14502
  33        1PX         0.05557  -0.00163   0.43626  -0.56238  -0.25778
  34        1PY         0.02547  -0.00193   0.18969  -0.27947  -0.01799
  35        1PZ        -0.01281  -0.02482  -0.10051   0.15812   0.06140
  36 12  H  1S         -0.06997   0.00441  -0.04327  -0.05833   0.03772
  37 13  H  1S         -0.00208  -0.00020   0.05073   0.05368  -0.04590
  38 14  C  1S          0.00101   0.01368  -0.01345   0.02192   0.01112
  39        1PX         0.00818   0.02476  -0.01805   0.01561   0.02040
  40        1PY        -0.02610  -0.01790   0.01708  -0.02574  -0.00309
  41        1PZ         0.00465  -0.02075  -0.00681   0.01856   0.00345
  42 15  C  1S         -0.01809  -0.00223  -0.01913   0.01162  -0.00687
[...]
 0.01076830,-0.00023901,0.00030645,-0.00002840,-0.00072715,0.00058393,-
 0.00010636,0.08850886,0.71333184,0.00006849,0.00013309,0.00591380,-0.0
 0084530,0.00001845,0.00523409,-0.00742455,0.00575628,-0.07230011,-0.00
 141785,0.00289679,0.00578248,0.00000021,0.00040502,0.00572363,0.000035
 09,0.00006579,0.00002654,0.00215247,0.01075882,-0.04321126,0.00000923,
 -0.00002340,-0.00031031,0.00003694,-0.00010292,-0.00175126,0.00201506,
 -0.02400368,0.14475585,0.00036355,-0.00103724,0.00004741,-0.00018316,0
 .00013047,-0.00004834,-0.01387539,-0.02304808,0.00084236,-0.26265225,-
 0.08973915,0.00246320,-0.05971842,0.00098030,-0.00051529,-0.00030681,0
 .00350284,-0.00019284,-0.00012946,0.00009412,-0.00000197,-0.00008569,-
 0.00002676,0.00000708,0.00007073,0.00001290,0.00000216,-0.00083820,-0.
 00045445,0.00002549,0.67146248,-0.00002633,-0.00092146,0.00003976,-0.0
 0026590,-0.00320162,0.00038103,-0.03549916,-0.02996406,0.00133819,-0.0
 7793261,-0.10284487,0.00084948,0.01222008,0.00928269,-0.00009413,0.003
 42546,-0.00084784,0.00029548,0.00002721,0.00012404,-0.00002323,0.00002
 647,0.00003152,-0.00004002,-0.00061651,-0.00017983,-0.00000983,-0.0017
 0328,-0.00115881,-0.00003299,-0.01296756,0.56157341,0.00000373,0.00003
 177,0.00000189,-0.00003168,0.00038434,0.00565444,0.00138050,0.00142864
 ,0.00699887,0.00195858,0.00076453,-0.07000166,-0.00100181,-0.00017597,
 0.00502602,-0.00018893,0.00029634,0.00540036,0.00000093,-0.00002291,-0
 .00042023,0.00000486,-0.00004036,-0.00089774,0.00002940,-0.00000523,-0
 .00030266,0.00007816,-0.00002313,-0.00163104,0.00193800,-0.00364291,0.
 47969400,-0.00351171,-0.00048070,-0.00004751,0.00019422,0.00007302,-0.
 00000208,-0.00266207,0.00102408,-0.00010414,0.00020742,0.02712608,-0.0
 0121429,-0.04389503,-0.04024273,0.00172762,-0.01189789,-0.03233862,0.0
 0126781,-0.00012337,0.00007886,-0.00000417,-0.00001323,-0.00065861,0.0
 0003063,-0.00000622,-0.00000623,0.00000676,0.00018742,0.00057706,-0.00
 002107,-0.00089480,0.00077141,-0.00002892,0.06319721,-0.00120264,0.000
 29512,0.00023042,0.00018300,0.00035000,-0.00001173,0.00182325,-0.00067
 344,0.00028204,0.00817663,-0.03014751,0.00162584,-0.04054523,-0.305761
 52,0.01106701,-0.01342715,-0.01829124,0.00093628,0.00007085,-0.0000372
 8,0.00000135,-0.00002608,-0.00017684,-0.00000620,-0.00001601,-0.000099
 55,-0.00003448,-0.00010180,-0.00041563,0.00000237,0.00072282,-0.000181
 60,-0.00005207,0.04456821,0.35486866,-0.00001638,0.00023596,0.00582572
 ,-0.00000650,-0.00001259,0.00004813,-0.00013888,0.00027597,0.00553886,
 -0.00039629,0.00176442,0.00605167,0.00174114,0.01106924,-0.04301409,0.
 00045099,0.00079795,0.00563687,-0.00000383,0.00000141,-0.00001806,0.00
 000335,-0.00001079,-0.00031563,0.00000720,-0.00003440,-0.00089398,0.00
 000829,0.00000730,-0.00034406,-0.00002678,-0.00005181,-0.00150656,-0.0
 0163801,-0.01395906,0.02457195,0.00329206,0.00433971,-0.00020528,-0.00
 012356,-0.00086811,-0.00000348,0.00025977,-0.00008902,0.00000471,-0.00
 255408,-0.00213929,0.00003062,-0.03758517,0.01433802,-0.00093374,-0.20
 599727,0.13408522,-0.00697753,0.00000122,0.00001034,-0.00000077,0.0004
 0901,-0.00025078,0.00002400,0.00016272,-0.00008492,0.00000742,-0.00006
 535,0.00013838,0.00000083,-0.00037521,0.00050789,-0.00002233,-0.000439
 65,-0.00023824,0.00001842,0.24310041,0.02345212,-0.03295292,0.00184224
 ,-0.00147485,-0.00333925,0.00037057,-0.00008232,0.00029997,-0.00000739
 ,-0.00143310,-0.00079864,0.00027911,-0.00472968,0.00750185,-0.00011618
 ,0.13407427,-0.14510273,0.00540712,-0.00001877,-0.00001064,0.00000228,
 -0.00003996,-0.00053314,-0.00003774,0.00055503,-0.00035009,0.00000409,
 0.00005496,-0.00009250,-0.00003877,-0.00019253,0.00030260,-0.00002823,
 -0.00045078,0.00030399,-0.00008356,-0.14963021,0.17473843,-0.00103013,
 0.00170329,0.00569142,0.00002272,0.00037501,0.00548179,0.00000425,-0.0
 0000753,0.00014363,0.00000004,0.00027422,0.00590045,-0.00011084,0.0000
 2290,0.00560931,-0.00697692,0.00540673,-0.04271472,0.00000048,0.000002
 51,0.00004532,0.00001499,-0.00003929,-0.00139888,-0.00002020,-0.000000
 63,-0.00035019,0.00000445,-0.00003821,-0.00099909,0.00000788,-0.000023
 17,-0.00031825,0.00002762,-0.00008205,-0.00155275,0.00805313,-0.007594
 54,0.02439138,0.00056875,-0.00069952,0.00003308,-0.00150292,0.00011104
 ,-0.00001598,0.00210486,-0.00263486,0.00015949,-0.04629983,0.01871031,
 -0.00115966,-0.00306832,-0.00164917,0.00004269,-0.00027370,0.00109593,
 -0.00004991,-0.00306753,-0.00056297,-0.00006342,-0.00002038,-0.0000152
 2,0.00000067,0.00012708,0.00001398,0.00000070,-0.03265410,-0.04885824,
 0.00182627,-0.19050898,0.10280426,-0.00528270,0.00001641,-0.00009450,0
 .00000470,-0.00009220,-0.00008110,0.00000332,0.96254486,0.00031121,-0.
 00108401,0.00005671,-0.00166220,-0.00021758,-0.00000198,0.00299897,-0.
 00288169,-0.00003504,0.00129035,0.01082386,-0.00032829,-0.00256360,-0.
 00100981,0.00006212,0.00011266,0.00093740,-0.00003764,-0.00041637,0.00
 005782,0.00038843,0.00003105,-0.00000693,-0.00000031,-0.00009049,-0.00
 005863,-0.00000036,-0.04604446,-0.03597326,0.00153264,0.11509315,-0.16
 384716,0.00480676,0.00004425,-0.00007407,0.00000082,-0.00018755,-0.000
 03343,-0.00000284,0.11382564,0.74530192,-0.00001075,0.00004966,0.00017
 481,0.00006115,0.00001103,0.00001824,-0.00008494,-0.00007542,-0.004192
 38,-0.00041276,-0.00020234,0.00298425,0.00008199,0.00006844,0.00085870
 ,-0.00000746,-0.00003061,0.00004962,-0.00006988,0.00038769,0.00909503,
 -0.00000134,-0.00000066,-0.00001965,0.00000518,0.00000043,-0.00005123,
 0.00170593,0.00151193,0.00708095,-0.00580744,0.00471813,-0.07158050,-0
 .00000132,-0.00000023,-0.00006309,0.00000790,-0.00000207,-0.00006709,0
 .00065393,-0.02391560,0.17402862,-0.00186057,0.00256681,-0.00012442,0.
 00388614,0.00261153,-0.00009209,-0.08391627,0.01501857,-0.00130726,-0.
 00294573,-0.00161504,0.00004440,0.00049155,-0.00018720,0.00001182,-0.0
 0063353,-0.00168495,0.00006820,-0.01347032,-0.01456358,0.00048986,-0.0
 0002982,0.00009706,-0.00000390,0.00005381,0.00016216,-0.00000648,-0.54
 138496,-0.18436944,0.00450681,0.00250603,0.02414020,-0.00108235,0.0000
 6947,-0.00007704,0.00000378,0.00004989,-0.00002299,0.00000129,-0.06693
 109,-0.04216696,0.00187191,0.94556615,-0.00035795,0.00218976,-0.000097
 49,0.00577939,-0.00200644,0.00017357,0.01289697,0.01525158,-0.00025913
 ,0.00115450,-0.00375382,0.00019534,0.00004633,0.00004007,-0.00000369,-
 0.00035413,-0.00098800,0.00003941,-0.03339791,-0.01809900,0.00080005,0
 .00008481,-0.00012942,0.00000330,-0.00001234,-0.00019243,0.00000789,-0
 .15985902,-0.14394515,0.00244933,0.01128022,-0.04263929,0.00227928,0.0
 0000940,0.00003344,-0.00000107,-0.00005769,0.00003931,-0.00000160,-0.0
 4219891,-0.33446059,0.01094879,0.11779217,0.71354352,0.00000203,-0.000
 07630,-0.00000634,-0.00022910,0.00015037,0.00102870,-0.00121549,-0.000
 24360,0.00709947,-0.00007549,0.00017533,0.00056474,0.00000213,-0.00000
 526,-0.00004931,0.00001071,0.00002976,-0.00001578,0.00130439,0.0009359
 8,0.00593218,-0.00000339,0.00000339,-0.00006751,0.00000099,0.00000915,
 -0.00000859,0.00344759,0.00227267,-0.06070645,-0.00052808,0.00236836,0
 .00815129,0.00000003,-0.00000169,0.00000723,0.00000278,-0.00000137,0.0
 0001162,0.00187563,0.01095143,-0.07460322,0.00068706,-0.02383169,0.143
 75602,-0.00016401,-0.00014080,0.00000932,-0.00037334,0.00049042,-0.000
 02359,-0.00241042,-0.00167027,-0.00001009,0.00011032,-0.00018265,0.000
 00929,-0.00003666,0.00003939,0.00000302,0.00007515,-0.00002425,0.00000
 166,-0.00052578,-0.00034619,0.00003224,-0.00003075,0.00002106,-0.00000
 142,-0.00001358,-0.00000465,-0.00000109,-0.03936278,0.01568327,-0.0010
 0562,-0.00010033,-0.00093657,0.00003239,-0.00000149,0.00001057,-0.0000
 0074,-0.00002464,0.00001816,-0.00000184,0.00403673,0.00311929,-0.00015
 911,-0.20209800,0.13158527,-0.00683749,0.24096141,-0.00003124,0.000032
 11,-0.00002852,-0.00022484,0.00030788,-0.00001684,-0.00126763,-0.00057
 814,0.00040583,-0.00044272,0.00006814,-0.00000977,0.00010072,-0.000040
 72,-0.00002758,-0.00008477,0.00001599,-0.00000166,-0.00046135,0.000431
 77,-0.00014830,-0.00000423,0.00002831,0.00000045,0.00003435,0.00006355
 ,0.00000467,-0.00314076,0.00724300,-0.00007310,-0.00143794,-0.00250202
 ,0.00014218,-0.00002833,-0.00001303,0.00000198,0.00003995,-0.00002340,
 0.00000662,0.02074038,-0.03421634,0.00194902,0.13306080,-0.14364306,0.
 00532666,-0.14651242,0.17546124,0.00000486,-0.00002941,-0.00062088,0.0
 0000723,-0.00001182,-0.00004311,-0.00002731,0.00040316,0.00900339,0.00
 002071,-0.00000774,-0.00008351,0.00000029,-0.00002794,-0.00069411,0.00
 000435,-0.00000106,-0.00000797,0.00003727,-0.00014759,-0.00291456,-0.0
 0000032,0.00000062,0.00003941,-0.00000280,0.00000437,0.00016534,-0.000
 19276,0.00006223,0.00607293,0.00005401,0.00014563,0.00101582,0.0000009
 4,0.00000226,0.00003737,-0.00000280,0.00000644,0.00012261,-0.00092210,
 0.00182133,0.00732732,-0.00690013,0.00531681,-0.04289961,0.00790271,-0
 .00763728,0.02361922,-0.00037001,0.00063664,-0.00003019,0.00114606,-0.
 00001048,0.00000908,-0.00236428,0.00151932,-0.00008341,-0.00223942,0.0
 0188439,-0.00010093,-0.00019035,-0.00034700,0.00001373,-0.00036180,-0.
 00039005,0.00001426,-0.00000373,-0.00003592,0.00000224,0.00004643,0.00
 001397,-0.00000023,-0.00002056,0.00003153,-0.00000139,0.00712643,0.000
 32570,0.00003233,-0.06378622,0.01249400,-0.00103242,0.00002544,-0.0000
 6423,0.00000311,-0.00001194,-0.00003980,0.00000163,-0.56517843,-0.1617
 8242,0.00343318,-0.03303158,-0.04524986,0.00166873,0.00027868,-0.00026
 133,0.00001633,0.92162930,-0.00003245,0.00032828,-0.00001440,0.0002741
 6,0.00007547,-0.00000301,-0.00024888,0.00030855,-0.00001134,0.00127426
 ,-0.00267746,0.00014607,0.00089324,0.00037135,-0.00001088,-0.00007714,
 -0.00021949,0.00000835,-0.00074707,0.00001536,-0.00001075,-0.00001692,
 0.00001126,-0.00000077,0.00006058,0.00001569,-0.00000096,0.00199156,-0
 .00471214,0.00024727,0.02225376,0.00744088,0.00011535,-0.00006259,0.00
 002881,-0.00000253,0.00007947,0.00000491,0.00000042,-0.16781361,-0.131
 83430,0.00187439,-0.05102757,-0.04017203,0.00169620,-0.00099071,-0.001
 73837,0.00005212,0.11508324,0.62837164,-0.00000121,-0.00000970,0.00000
 053,-0.00000345,-0.00000510,-0.00004077,-0.00000661,0.00000111,0.00008
 525,-0.00007461,0.00015074,0.00050214,-0.00003970,-0.00001981,-0.00003
 082,0.00000090,0.00000613,-0.00001429,0.00003299,-0.00000540,-0.000103
 01,0.00000109,-0.00000054,-0.00000364,-0.00000264,-0.00000118,-0.00001
 677,-0.00004038,0.00023519,0.00066660,-0.00145595,0.00004602,0.0064496
 2,0.00000302,-0.00000252,-0.00001878,-0.00000352,-0.00000044,0.0000012
 1,0.00369478,0.00191694,-0.06112009,0.00191883,0.00173694,0.00737166,0
 .00004738,0.00005724,-0.00037429,0.00060968,-0.02072893,0.13058022,0.0
 0000574,-0.00007851,0.00000339,-0.00001923,-0.00002097,0.00000068,-0.0
 0005001,0.00010356,-0.00000362,-0.00025905,0.00057602,-0.00002597,-0.0
 0019787,-0.00006347,-0.00000032,0.00005417,0.00004706,-0.00000166,0.00
 003628,-0.00009649,0.00000179,-0.00000876,-0.00000932,0.00000033,-0.00
 001761,-0.00002382,0.00000084,-0.00006078,0.00036475,-0.00001612,-0.00
 222061,-0.00199034,0.00001187,0.00000919,0.00000415,-0.00000017,-0.000
 03047,0.00001181,-0.00000046,-0.03988214,0.01707742,-0.00106005,-0.000
 74634,-0.00061797,0.00005002,-0.00037523,-0.00078695,0.00002963,-0.206
 54967,0.13467467,-0.00698087,0.24677204,-0.00001837,0.00003970,-0.0000
 0164,0.00003074,-0.00000783,0.00000106,0.00003621,-0.00000407,-0.00000
 703,-0.00012136,0.00028555,-0.00001689,-0.00004870,-0.00006137,0.00001
 227,-0.00005674,-0.00000353,-0.00000018,-0.00000767,0.00005334,0.00001
 391,0.00001568,0.00000761,-0.00000014,0.00000094,0.00002087,-0.0000005
 4,0.00003929,-0.00014685,0.00000614,-0.00104315,-0.00036921,0.00036563
 ,-0.00000194,-0.00002313,0.00000137,0.00000946,-0.00001732,-0.00000084
 ,-0.00422370,0.00779654,-0.00011275,-0.00096485,0.00047659,-0.00020274
 ,-0.00014652,-0.00055670,0.00003414,0.13881371,-0.15068856,0.00570682,
 -0.15170254,0.16842148,0.00000073,-0.00000191,0.00000491,-0.00000137,0
 .00000067,0.00001137,-0.00000094,-0.00000655,-0.00017269,0.00000427,-0
 .00001236,-0.00008509,-0.00000072,0.00001224,0.00023105,0.00000274,0.0
 0000042,0.00000207,-0.00000215,0.00001330,0.00037591,-0.00000075,-0.00
 000032,0.00000172,-0.00000022,-0.00000072,0.00000816,-0.00000183,0.000
 00822,-0.00001175,-0.00002874,0.00035925,0.00824784,0.00000009,0.00000
 141,0.00000872,-0.00000034,-0.00000082,-0.00003833,-0.00013990,0.00003
 739,0.00587442,0.00006494,-0.00020050,-0.00404860,0.00000185,0.0000296
 7,0.00025461,-0.00715948,0.00567749,-0.04148636,0.00813434,-0.00738860
 ,0.02246372,0.00001388,0.00000885,-0.00000023,-0.00001734,0.00001667,-
 0.00000070,0.00012917,0.00001424,-0.00000199,0.00000273,-0.00008868,0.
 00000370,0.00007195,0.00003233,-0.00000006,0.00000064,0.00000097,0.000
 00002,-0.00015345,-0.00002471,0.00000673,-0.00000896,-0.00000085,-0.00
 000007,0.00000658,-0.00000467,0.00000019,0.00003996,-0.00080329,0.0000
 3529,-0.00104382,-0.00033780,0.00003258,-0.00001837,0.00000485,-0.0000
 0045,0.00000251,0.00000525,-0.00000035,-0.01538659,-0.03530746,0.00136
 982,-0.00308080,-0.00026972,-0.00007581,-0.00007615,0.00008977,-0.0000
 0338,-0.05278506,-0.05778372,0.00242218,0.00335403,0.01960893,-0.00088
 338,0.06924962,0.00002157,-0.00007300,0.00000301,-0.00004013,0.0000007
 4,-0.00000122,-0.00002233,0.00004689,0.00001206,0.00009259,-0.00007083
 ,0.00000451,-0.00000486,0.00005689,-0.00000741,0.00007875,0.00001131,-
 0.00000024,-0.00002770,-0.00008033,-0.00003850,-0.00001844,-0.00001102
 ,0.00000061,-0.00000613,-0.00002573,0.00000146,-0.00017423,0.00002204,
 -0.00000379,-0.00043382,0.00009436,-0.00016249,0.00001028,0.00003426,-
 0.00000074,-0.00001934,0.00002417,-0.00000032,-0.01404003,-0.01579017,
 0.00087134,-0.00069178,-0.00005921,0.00040037,0.00008578,0.00009938,-0
 .00001008,-0.06213448,-0.30432176,0.01087922,0.00263806,-0.02518112,0.
 00147412,0.07468720,0.34523813,-0.00000075,0.00000287,-0.00000696,0.00
 000168,-0.00000080,-0.00002071,-0.00000038,0.00001228,0.00032929,-0.00
 000417,0.00000333,0.00001762,0.00000145,-0.00000718,-0.00011403,-0.000
 00331,-0.00000075,-0.00000764,0.00000714,-0.00003851,-0.00096497,0.000
 00069,0.00000074,0.00000632,0.00000025,0.00000147,0.00000899,0.0000079
 4,-0.00000795,-0.00003664,0.00003666,-0.00016184,-0.00358444,-0.000000
 69,-0.00000078,0.00001557,0.00000071,-0.00000014,0.00002015,0.00045051
 ,0.00072127,0.00664559,-0.00005752,0.00040357,0.00930428,-0.00000314,-
 0.00001018,-0.00014744,0.00261016,0.01090986,-0.04277726,-0.00015025,0
 .00159369,0.00844808,-0.00289460,-0.01342555,0.02279664,0.00004829,-0.
 00040109,0.00001225,-0.00029425,-0.00020516,0.00081336,-0.00170304,-0.
 00024113,-0.00005243,-0.01244261,-0.02273230,-0.02035720,-0.00197873,-
 0.00025885,-0.00030778,0.00049931,0.00033433,0.00044523,-0.00001292,-0
 .00000409,0.00002845,0.00003329,0.00001900,-0.00009848,-0.00008099,-0.
 00002546,-0.00002857,-0.00017711,0.00011937,-0.00019755,-0.03859476,-0
 .01201131,-0.01550763,-0.00021856,0.00010565,-0.00019312,0.00001132,0.
 00000962,-0.00006017,-0.00242208,0.01889964,0.01474770,-0.00124356,0.0
 0085480,-0.00041070,0.00006500,0.00031048,0.00002350,-0.00168137,0.001
 12433,0.00033674,0.00009708,-0.00013307,-0.00053538,-0.00015234,0.0000
 0827,0.00020055,0.05574641,-0.00000904,0.00024680,-0.00000905,0.000146
 94,-0.00017451,0.00040344,-0.00100632,0.00028336,-0.00004053,-0.016039
 28,-0.01266969,-0.01415587,0.00080412,0.00001568,-0.00017363,-0.000220
 52,-0.00031791,0.00046929,-0.00000116,0.00000197,-0.00005248,-0.000013
 50,-0.00001300,-0.00007887,-0.00002329,-0.00001458,-0.00002649,0.00028
 155,-0.00001294,-0.00009024,-0.01177386,-0.12452118,-0.11308176,-0.000
 01246,-0.00001527,-0.00019372,0.00000892,0.00001940,-0.00002099,0.0131
 8809,-0.02301304,-0.01905175,0.00095319,-0.00071331,0.00041390,-0.0000
 4771,-0.00022155,-0.00007773,-0.00024703,-0.00031704,-0.00029508,-0.00
 006131,0.00002029,0.00096247,0.00008613,-0.00002893,-0.00050894,0.0135
 6177,0.15379937,0.00000493,0.00014301,-0.00002067,0.00006540,0.0000182
 8,-0.00007627,0.00020338,0.00039372,-0.00034109,-0.00856565,-0.0077627
 5,-0.00055090,0.00010969,-0.00002237,0.00015202,-0.00011743,-0.0001474
 0,-0.00003840,0.00000363,-0.00000463,0.00005088,-0.00001655,-0.0000010
 9,0.00001224,0.00001164,-0.00000251,0.00001448,0.00008108,-0.00002159,
 0.00002702,-0.01532326,-0.11249963,-0.17901553,-0.00018270,0.00006278,
 -0.00000457,0.00000967,0.00001920,0.00000983,0.00543542,-0.00914605,0.
 00023413,-0.00014373,0.00031388,-0.00044366,0.00001528,0.00006239,0.00
 006567,-0.00013145,0.00004722,0.00017988,-0.00002229,-0.00001044,-0.00
 009031,0.00015084,0.00001770,0.00005758,0.01953240,0.13879431,0.212206
 16,0.00004834,-0.00039823,0.00002319,-0.00028137,-0.00027478,-0.000795
 71,-0.00170239,-0.00023057,0.00005269,-0.01288139,-0.02102690,0.022072
 89,-0.00198147,-0.00023351,0.00029828,0.00050396,0.00029263,-0.0004642
 4,-0.00001244,-0.00000668,-0.00002887,0.00003159,0.00002739,0.00009676
 ,-0.00008132,-0.00002303,0.00002926,-0.00017858,0.00013541,0.00018355,
 -0.03908835,-0.01212910,0.01870775,-0.00022449,0.00012300,0.00018017,0
 .00001060,0.00001505,0.00005909,-0.00211017,0.01741775,-0.01632362,-0.
 00125094,0.00089146,0.00032348,0.00006580,0.00030819,-0.00005024,-0.00
 167812,0.00109102,-0.00045864,0.00008914,-0.00008640,0.00054625,-0.000
 14798,-0.00000912,-0.00020292,0.00450160,0.00042484,-0.00112020,0.0563
 6797,-0.00000925,0.00023293,-0.00001304,0.00014620,-0.00021019,-0.0003
 9019,-0.00102126,0.00024801,-0.00002497,-0.01546143,-0.01073126,0.0148
 2181,0.00078745,0.00003419,0.00019555,-0.00020240,-0.00034332,-0.00044
 612,-0.00000229,0.00000725,0.00005618,-0.00001319,-0.00000594,0.000080
 31,-0.00002469,-0.00001191,0.00002840,0.00027215,-0.00000272,0.0000968
 7,-0.01191648,-0.10567032,0.10662027,0.00000032,-0.00000389,0.00019383
 ,0.00000778,0.00001951,0.00002031,0.01238180,-0.02041531,0.02100045,0.
 00096802,-0.00077319,-0.00037085,-0.00005020,-0.00021813,0.00010153,-0
 .00023994,-0.00029149,0.00033245,-0.00004563,-0.00006244,-0.00096488,0
 .00006577,0.00001397,0.00051352,0.00066547,0.00764613,-0.01025401,0.01
 369184,0.13053817,-0.00000320,-0.00017062,-0.00000689,-0.00008127,-0.0
 0001085,-0.00005358,-0.00013630,-0.00044761,-0.00030693,0.00975220,0.0
 0833930,-0.00205050,-0.00020836,0.00002890,0.00013598,0.00014319,0.000
 17793,-0.00001773,-0.00000436,0.00000832,0.00004513,0.00001802,0.00000
 306,0.00000687,-0.00001095,0.00000444,0.00001205,-0.00010756,0.0000259
 8,0.00001829,0.01850447,0.10603828,-0.19738063,0.00018039,-0.00006099,
 -0.00001059,-0.00001038,-0.00001982,0.00001046,-0.00654750,0.01117216,
 -0.00267568,0.00004903,-0.00027292,-0.00037749,-0.00001104,-0.00003349
 ,0.00006136,0.00012504,0.00000893,0.00015062,0.00002888,0.00000675,0.0
 0000017,-0.00016030,-0.00001407,0.00000971,0.00160878,0.00681362,-0.03
 242857,-0.02312887,-0.13159734,0.23485786\\0.00000720,-0.00000271,-0.0
 0000076,-0.00000656,0.00000429,-0.00000013,0.00000077,0.00000506,-0.00
 000029,-0.00000705,-0.00001147,0.,-0.00000841,-0.00000182,0.00000020,0
 .00000498,0.00000074,0.00000090,-0.00000115,-0.00000094,-0.00000102,-0
 .00000086,0.00000125,0.00000108,0.00000095,-0.00000083,0.00000007,-0.0
 0000428,-0.00000072,-0.00000001,0.00000608,0.00001283,0.00000086,0.000
 00010,0.00000151,0.00000002,-0.00000103,-0.00000089,-0.00000110,0.0000
 0482,-0.00000134,-0.00000047,0.00000380,0.00000378,0.00000022,0.000001
 30,0.00000086,0.00000041,-0.00000012,0.00000008,-0.00000105,-0.0000003
 8,-0.00000321,0.00000099,-0.00000175,0.00000145,-0.00000024,0.00000108
 ,-0.00000352,0.00000218,0.00000052,-0.00000439,-0.00000187\\\@


 TO BEHOLD HARMS OF OUR OWN HANDS DOING,
 WHERE NONE BESIDE US WROUGHT,
 CAUSES SHARP RUING...

                                         SOPHOCLES
 Job cpu time:       0 days  0 hours  0 minutes  0.6 seconds.
 Elapsed time:       0 days  0 hours  0 minutes  0.6 seconds.
 File lengths (MBytes):  RWF=     29 Int=      0 D2E=      0 Chk=      2 Scr=      1
 Normal termination of Gaussian 16 at Thu Jun 12 22:16:02 2025.
