 Entering Gaussian System, Link 0=g16
 Input=/home/gaussian/Documents/program files/Aromaticity/AM1 HF3-21G*/meth_napthlene/opt freq/Meth_napthalene_optfreq.com
 Output=/home/gaussian/Documents/program files/Aromaticity/AM1 HF3-21G*/meth_napthlene/opt freq/Meth_napthalene_optfreq.log
 Initial command:
 /usr/local/g16/l1.exe "/home/gaussian/tmp/Gau-142567.inp" -scrdir="/home/gaussian/tmp/"
 Entering Link 1 = /usr/local/g16/l1.exe PID=    142570.
  
 Copyright (c) 1988-2017, Gaussian, Inc.  All Rights Reserved.
  
 This is part of the Gaussian(R) 16 program.  It is based on
 the Gaussian(R) 09 system (copyright 2009, Gaussian, Inc.),
 the Gaussian(R) 03 system (copyright 2003, Gaussian, Inc.),
 the Gaussian(R) 98 system (copyright 1998, Gaussian, Inc.),
 the Gaussian(R) 94 system (copyright 1995, Gaussian, Inc.),
 the Gaussian 92(TM) system (copyright 1992, Gaussian, Inc.),
 the Gaussian 90(TM) system (copyright 1990, Gaussian, Inc.),
 the Gaussian 88(TM) system (copyright 1988, Gaussian, Inc.),
 the Gaussian 86(TM) system (copyright 1986, Carnegie Mellon
 University), and the Gaussian 82(TM) system (copyright 1983,
 Carnegie Mellon University). Gaussian is a federally registered
 trademark of Gaussian, Inc.
  
 This software contains proprietary and confidential information,
 including trade secrets, belonging to Gaussian, Inc.
  
 This software is provided under written license and may be
 used, copied, transmitted, or stored only in accord with that
 written license.
  
 The following legend is applicable only to US Government
 contracts under FAR:
  
                    RESTRICTED RIGHTS LEGEND
  
 Use, reproduction and disclosure by the US Government is
 subject to restrictions as set forth in subparagraphs (a)
 and (c) of the Commercial Computer Software - Restricted
 Rights clause in FAR 52.227-19.
  
 Gaussian, Inc.
 340 Quinnipiac St., Bldg. 40, Wallingford CT 06492
  
  
 ---------------------------------------------------------------
 Warning -- This program may not be used in any manner that
 competes with the business of Gaussian, Inc. or will provide
 assistance to any competitor of Gaussian, Inc.  The licensee
 of this program is prohibited from giving any competitor of
 Gaussian, Inc. access to this program.  By using this program,
 the user acknowledges that Gaussian, Inc. is engaged in the
 business of creating and licensing software in the field of
 computational chemistry and represents and warrants to the
 licensee that it is not a competitor of Gaussian, Inc. and that
 it will not use this program in any manner prohibited above.
 ---------------------------------------------------------------
  

 Cite this work as:
 Gaussian 16, Revision B.01,
 M. J. Frisch, G. W. Trucks, H. B. Schlegel, G. E. Scuseria, 
 M. A. Robb, J. R. Cheeseman, G. Scalmani, V. Barone, 
 G. A. Petersson, H. Nakatsuji, X. Li, M. Caricato, A. V. Marenich, 
 J. Bloino, B. G. Janesko, R. Gomperts, B. Mennucci, H. P. Hratchian, 
 J. V. Ortiz, A. F. Izmaylov, J. L. Sonnenberg, D. Williams-Young, 
 F. Ding, F. Lipparini, F. Egidi, J. Goings, B. Peng, A. Petrone, 
 T. Henderson, D. Ranasinghe, V. G. Zakrzewski, J. Gao, N. Rega, 
 G. Zheng, W. Liang, M. Hada, M. Ehara, K. Toyota, R. Fukuda, 
 J. Hasegawa, M. Ishida, T. Nakajima, Y. Honda, O. Kitao, H. Nakai, 
 T. Vreven, K. Throssell, J. A. Montgomery, Jr., J. E. Peralta, 
 F. Ogliaro, M. J. Bearpark, J. J. Heyd, E. N. Brothers, K. N. Kudin, 
 V. N. Staroverov, T. A. Keith, R. Kobayashi, J. Normand, 
 K. Raghavachari, A. P. Rendell, J. C. Burant, S. S. Iyengar, 
 J. Tomasi, M. Cossi, J. M. Millam, M. Klene, C. Adamo, R. Cammi, 
 J. W. Ochterski, R. L. Martin, K. Morokuma, O. Farkas, 
 J. B. Foresman, and D. J. Fox, Gaussian, Inc., Wallingford CT, 2016.
 
 ******************************************
 Gaussian 16:  EM64L-G16RevB.01 20-Dec-2017
                12-Jun-2025 
 ******************************************
 %chk=methToluene.chk
 -----------------------------------------
 # opt freq am1 pop=full geom=connectivity
 -----------------------------------------
 1/18=20,19=15,26=1,38=1,57=2/1,3;
 2/9=110,12=2,17=6,18=5,40=1/2;
 3/5=2,25=1,41=700000,71=1/1,2,3;
 4/35=1/1;
 5/5=2,35=1,38=5/2;
 6/7=3,28=1/1;
 7//1,2,3,16;
 1/18=20,19=15,26=1/3(2);
 2/9=110/2;
 99//99;
 2/9=110/2;
 3/5=2,25=1,41=700000,71=1,135=20/1,2,3;
 4/5=5,16=3,35=1/1;
 5/5=2,35=1,38=5/2;
 7//1,2,3,16;
 1/18=20,19=15,26=1/3(-5);
 2/9=110/2;
 6/7=3,19=2,28=1/1;
 99/9=1/99;
 --------------------------
 Methyl Napthalene opt+Freq
 --------------------------
 Symbolic Z-matrix:
 Charge =  0 Multiplicity = 1
 C                    -2.68231  -1.04483  0. 
 C                    -1.40495  -1.50548  0. 
 C                    -0.30999  -0.60475  0. 
 C                    -0.56795   0.77824  0. 
 C                    -1.91085   1.23025  0. 
 C                    -2.94024   0.34473   0.00001 
 H                     1.21837  -2.11504  -0.00001 
 H                    -3.50461  -1.73251   0.00001 
 H                    -1.20566  -2.55971   0.00001 
 C                     1.03618  -1.05705  -0.00001 
 C                     0.53331   1.67396   0. 
 H                    -2.09972   2.2865    0.00001 
 H                    -3.95408   0.69251   0.00001 
 C                     1.80563   1.20951  -0.00001 
 C                     2.07696  -0.18535  -0.00001 
 H                     0.3395    2.72938   0.00001 
 H                     2.62991   1.89664   0. 
 C                     3.51786  -0.65422   0.00001 
 H                     4.03898  -0.28599  -0.87791 
 H                     4.03883  -0.2864    0.87819 
 H                     3.57648  -1.73535  -0.00024 
 

 GradGradGradGradGradGradGradGradGradGradGradGradGradGradGradGradGradGrad
 Berny optimization.
 Initialization pass.
                           ----------------------------
                           !    Initial Parameters    !
                           ! (Angstroms and Degrees)  !
 --------------------------                            --------------------------
 ! Name  Definition              Value          Derivative Info.                !
 --------------------------------------------------------------------------------
 ! R1    R(1,2)                  1.3579         estimate D2E/DX2                !
 ! R2    R(1,6)                  1.4133         estimate D2E/DX2                !
 ! R3    R(1,8)                  1.072          estimate D2E/DX2                !
 ! R4    R(2,3)                  1.4178         estimate D2E/DX2                !
 ! R5    R(2,9)                  1.0729         estimate D2E/DX2                !
 ! R6    R(3,4)                  1.4068         estimate D2E/DX2                !
 ! R7    R(3,10)                 1.4201         estimate D2E/DX2                !
 ! R8    R(4,5)                  1.4169         estimate D2E/DX2                !
 ! R9    R(4,11)                 1.4195         estimate D2E/DX2                !
 ! R10   R(5,6)                  1.3579         estimate D2E/DX2                !
 ! R11   R(5,12)                 1.073          estimate D2E/DX2                !
 ! R12   R(6,13)                 1.0718         estimate D2E/DX2                !
 ! R13   R(7,10)                 1.0736         estimate D2E/DX2                !
 ! R14   R(10,15)                1.3576         estimate D2E/DX2                !
 ! R15   R(11,14)                1.3544         estimate D2E/DX2                !
 ! R16   R(11,16)                1.0731         estimate D2E/DX2                !
 ! R17   R(14,15)                1.421          estimate D2E/DX2                !
 ! R18   R(14,17)                1.0731         estimate D2E/DX2                !
 ! R19   R(15,18)                1.5153         estimate D2E/DX2                !
 ! R20   R(18,19)                1.0853         estimate D2E/DX2                !
 ! R21   R(18,20)                1.0853         estimate D2E/DX2                !
 ! R22   R(18,21)                1.0827         estimate D2E/DX2                !
 ! A1    A(2,1,6)              120.346          estimate D2E/DX2                !
 ! A2    A(2,1,8)              120.264          estimate D2E/DX2                !
 ! A3    A(6,1,8)              119.39           estimate D2E/DX2                !
 ! A4    A(1,2,3)              120.7285         estimate D2E/DX2                !
 ! A5    A(1,2,9)              120.5349         estimate D2E/DX2                !
 ! A6    A(3,2,9)              118.7366         estimate D2E/DX2                !
 ! A7    A(2,3,4)              118.8752         estimate D2E/DX2                !
 ! A8    A(2,3,10)             121.9871         estimate D2E/DX2                !
 ! A9    A(4,3,10)             119.1378         estimate D2E/DX2                !
 ! A10   A(3,4,5)              119.1689         estimate D2E/DX2                !
 ! A11   A(3,4,11)             118.5576         estimate D2E/DX2                !
 ! A12   A(5,4,11)             122.2736         estimate D2E/DX2                !
 ! A13   A(4,5,6)              120.6937         estimate D2E/DX2                !
 ! A14   A(4,5,12)             118.7412         estimate D2E/DX2                !
 ! A15   A(6,5,12)             120.565          estimate D2E/DX2                !
 ! A16   A(1,6,5)              120.1877         estimate D2E/DX2                !
 ! A17   A(1,6,13)             119.4492         estimate D2E/DX2                !
 ! A18   A(5,6,13)             120.3631         estimate D2E/DX2                !
 ! A19   A(3,10,7)             118.3429         estimate D2E/DX2                !
 ! A20   A(3,10,15)            121.4803         estimate D2E/DX2                !
 ! A21   A(7,10,15)            120.1767         estimate D2E/DX2                !
 ! A22   A(4,11,14)            120.8223         estimate D2E/DX2                !
 ! A23   A(4,11,16)            118.7181         estimate D2E/DX2                !
 ! A24   A(14,11,16)           120.4596         estimate D2E/DX2                !
 ! A25   A(11,14,15)           121.0623         estimate D2E/DX2                !
 ! A26   A(11,14,17)           120.131          estimate D2E/DX2                !
 ! A27   A(15,14,17)           118.8067         estimate D2E/DX2                !
 ! A28   A(10,15,14)           118.9397         estimate D2E/DX2                !
 ! A29   A(10,15,18)           122.0272         estimate D2E/DX2                !
 ! A30   A(14,15,18)           119.0331         estimate D2E/DX2                !
 ! A31   A(15,18,19)           110.5848         estimate D2E/DX2                !
 ! A32   A(15,18,20)           110.585          estimate D2E/DX2                !
 ! A33   A(15,18,21)           111.1287         estimate D2E/DX2                !
 ! A34   A(19,18,20)           108.0023         estimate D2E/DX2                !
 ! A35   A(19,18,21)           108.2166         estimate D2E/DX2                !
 ! A36   A(20,18,21)           108.2167         estimate D2E/DX2                !
 ! D1    D(6,1,2,3)             -0.0003         estimate D2E/DX2                !
 ! D2    D(6,1,2,9)            179.9993         estimate D2E/DX2                !
 ! D3    D(8,1,2,3)           -179.9996         estimate D2E/DX2                !
 ! D4    D(8,1,2,9)              0.0001         estimate D2E/DX2                !
 ! D5    D(2,1,6,5)              0.0006         estimate D2E/DX2                !
 ! D6    D(2,1,6,13)          -179.9999         estimate D2E/DX2                !
 ! D7    D(8,1,6,5)            179.9998         estimate D2E/DX2                !
 ! D8    D(8,1,6,13)            -0.0007         estimate D2E/DX2                !
 ! D9    D(1,2,3,4)              0.0001         estimate D2E/DX2                !
 ! D10   D(1,2,3,10)          -179.9998         estimate D2E/DX2                !
 ! D11   D(9,2,3,4)           -179.9995         estimate D2E/DX2                !
 ! D12   D(9,2,3,10)             0.0006         estimate D2E/DX2                !
 ! D13   D(2,3,4,5)             -0.0001         estimate D2E/DX2                !
 ! D14   D(2,3,4,11)           179.9998         estimate D2E/DX2                !
 ! D15   D(10,3,4,5)           179.9998         estimate D2E/DX2                !
 ! D16   D(10,3,4,11)           -0.0004         estimate D2E/DX2                !
 ! D17   D(2,3,10,7)            -0.0002         estimate D2E/DX2                !
 ! D18   D(2,3,10,15)          180.0            estimate D2E/DX2                !
 ! D19   D(4,3,10,7)           179.9999         estimate D2E/DX2                !
 ! D20   D(4,3,10,15)            0.0001         estimate D2E/DX2                !
 ! D21   D(3,4,5,6)              0.0003         estimate D2E/DX2                !
 ! D22   D(3,4,5,12)           179.9997         estimate D2E/DX2                !
 ! D23   D(11,4,5,6)          -179.9995         estimate D2E/DX2                !
 ! D24   D(11,4,5,12)           -0.0002         estimate D2E/DX2                !
 ! D25   D(3,4,11,14)            0.0008         estimate D2E/DX2                !
 ! D26   D(3,4,11,16)         -179.9997         estimate D2E/DX2                !
 ! D27   D(5,4,11,14)         -179.9994         estimate D2E/DX2                !
 ! D28   D(5,4,11,16)            0.0002         estimate D2E/DX2                !
 ! D29   D(4,5,6,1)             -0.0006         estimate D2E/DX2                !
 ! D30   D(4,5,6,13)           179.9999         estimate D2E/DX2                !
 ! D31   D(12,5,6,1)          -179.9999         estimate D2E/DX2                !
 ! D32   D(12,5,6,13)            0.0006         estimate D2E/DX2                !
 ! D33   D(3,10,15,14)          -0.0003         estimate D2E/DX2                !
 ! D34   D(3,10,15,18)         179.999          estimate D2E/DX2                !
 ! D35   D(7,10,15,14)         180.0            estimate D2E/DX2                !
 ! D36   D(7,10,15,18)          -0.0008         estimate D2E/DX2                !
 ! D37   D(4,11,14,15)          -0.0009         estimate D2E/DX2                !
 ! D38   D(4,11,14,17)        -179.9996         estimate D2E/DX2                !
 ! D39   D(16,11,14,15)        179.9995         estimate D2E/DX2                !
 ! D40   D(16,11,14,17)          0.0009         estimate D2E/DX2                !
 ! D41   D(11,14,15,10)          0.0007         estimate D2E/DX2                !
 ! D42   D(11,14,15,18)       -179.9986         estimate D2E/DX2                !
 ! D43   D(17,14,15,10)        179.9993         estimate D2E/DX2                !
 ! D44   D(17,14,15,18)          0.0001         estimate D2E/DX2                !
 ! D45   D(10,15,18,19)        120.2226         estimate D2E/DX2                !
 ! D46   D(10,15,18,20)       -120.1929         estimate D2E/DX2                !
 ! D47   D(10,15,18,21)          0.015          estimate D2E/DX2                !
 ! D48   D(14,15,18,19)        -59.7781         estimate D2E/DX2                !
 ! D49   D(14,15,18,20)         59.8063         estimate D2E/DX2                !
 ! D50   D(14,15,18,21)       -179.9858         estimate D2E/DX2                !
 --------------------------------------------------------------------------------
 Trust Radius=3.00D-01 FncErr=1.00D-07 GrdErr=1.00D-07 EigMax=2.50D+02 EigMin=1.00D-04
 Number of steps in this run=    118 maximum allowed number of steps=    126.
 GradGradGradGradGradGradGradGradGradGradGradGradGradGradGradGradGradGrad

                          Input orientation:                          
 ---------------------------------------------------------------------
 Center     Atomic      Atomic             Coordinates (Angstroms)
 Number     Number       Type             X           Y           Z
 ---------------------------------------------------------------------
      1          6           0       -2.682308   -1.044829   -0.000001
      2          6           0       -1.404945   -1.505476   -0.000001
      3          6           0       -0.309986   -0.604754   -0.000002
      4          6           0       -0.567952    0.778237   -0.000001
      5          6           0       -1.910845    1.230250   -0.000001
      6          6           0       -2.940238    0.344731    0.000005
      7          1           0        1.218371   -2.115038   -0.000006
      8          1           0       -3.504606   -1.732512    0.000007
      9          1           0       -1.205662   -2.559705    0.000006
     10          6           0        1.036177   -1.057054   -0.000007
     11          6           0        0.533311    1.673956    0.000003
     12          1           0       -2.099718    2.286498    0.000005
     13          1           0       -3.954081    0.692512    0.000006
     14          6           0        1.805626    1.209506   -0.000010
     15          6           0        2.076961   -0.185349   -0.000008
     16          1           0        0.339503    2.729379    0.000009
     17          1           0        2.629913    1.896635    0.000000
     18          6           0        3.517862   -0.654224    0.000010
     19          1           0        4.038982   -0.285986   -0.877907
     20          1           0        4.038831   -0.286400    0.878193
     21          1           0        3.576482   -1.735347   -0.000241
 ---------------------------------------------------------------------
                    Distance matrix (angstroms):
                    1          2          3          4          5
     1  C    0.000000
     2  C    1.357885   0.000000
     3  C    2.412795   1.417828   0.000000
     4  C    2.791786   2.432263   1.406844   0.000000
     5  C    2.402320   2.782109   2.435157   1.416925   0.000000
     6  C    1.413296   2.404244   2.796381   2.411570   1.357864
     7  H    4.044829   2.693205   2.148682   3.400293   4.580714
     8  H    1.071952   2.111900   3.387836   3.863651   3.364228
     9  H    2.115498   1.072899   2.150365   3.398313   3.855002
    10  C    3.718505   2.481967   1.420116   2.437524   3.730509
    11  C    4.210938   3.723657   2.429747   1.419540   2.484104
    12  H    3.381886   3.855097   3.400365   2.149688   1.073002
    13  H    2.153082   3.365894   3.868117   3.387214   2.112812
    14  C    5.022308   4.204628   2.786997   2.412440   3.716529
    15  C    4.836253   3.723762   2.423513   2.814971   4.231609
    16  H    4.834872   4.580076   3.396804   2.151843   2.703970
    17  H    6.072224   5.277730   3.860046   3.387795   4.589396
    18  C    6.212462   4.995864   3.828168   4.329644   5.746486
    19  H    6.820726   5.647496   4.448129   4.809068   6.202430
    20  H    6.820568   5.647306   4.448009   4.809067   6.202427
    21  H    6.296766   4.986728   4.047576   4.847106   6.237429
                    6          7          8          9         10
     6  C    0.000000
     7  H    4.831614   0.000000
     8  H    2.152545   4.738443   0.000000
     9  H    3.382972   2.464481   2.443234   0.000000
    10  C    4.216263   1.073557   4.590747   2.698852   0.000000
    11  C    3.719191   3.850426   5.282878   4.576889   2.776921
    12  H    2.115876   5.512099   4.257482   4.927983   4.584013
    13  H    1.071835   5.885286   2.466327   4.258019   5.288067
    14  C    4.824009   3.376013   6.070752   4.824397   2.393605
    15  C    5.045123   2.112079   5.792029   4.051318   1.357609
    16  H    4.055027   4.923493   5.889452   5.510167   3.849991
    17  H    5.782300   4.252760   7.127625   5.879677   3.356229
    18  C    6.534904   2.724268   7.104770   5.093382   2.514166
    19  H    7.062439   3.474477   7.731034   5.783323   3.222125
    20  H    7.062361   3.474211   7.730840   5.783064   3.221967
    21  H    6.840641   2.388483   7.081089   4.852676   2.629302
                   11         12         13         14         15
    11  C    0.000000
    12  H    2.703340   0.000000
    13  H    4.593465   2.445292   0.000000
    14  C    1.354437   4.051126   5.782863   0.000000
    15  C    2.416582   4.853316   6.094597   1.421001   0.000000
    16  H    1.073070   2.479101   4.752230   2.111760   3.393287
    17  H    2.108394   4.745672   6.693197   1.073124   2.154162
    18  C    3.785230   6.340745   7.592340   2.530858   1.515269
    19  H    4.111183   6.713571   8.100447   2.827557   2.151827
    20  H    4.111312   6.713628   8.100378   2.827752   2.151832
    21  H    4.569927   6.956614   7.912261   3.436290   2.156631
                   16         17         18         19         20
    16  H    0.000000
    17  H    2.437097   0.000000
    18  C    4.642277   2.700988   0.000000
    19  H    4.852763   2.742267   1.085313   0.000000
    20  H    4.852954   2.742611   1.085315   1.756100   0.000000
    21  H    5.514691   3.753303   1.082711   1.756374   1.756377
                   21
    21  H    0.000000
 Stoichiometry    C11H10
 Framework group  C1[X(C11H10)]
 Deg. of freedom    57
 Full point group                 C1      NOp   1
 Largest Abelian subgroup         C1      NOp   1
 Largest concise Abelian subgroup C1      NOp   1
                         Standard orientation:                         
 ---------------------------------------------------------------------
 Center     Atomic      Atomic             Coordinates (Angstroms)
 Number     Number       Type             X           Y           Z
 ---------------------------------------------------------------------
      1          6           0       -2.682308   -1.044829   -0.000001
      2          6           0       -1.404945   -1.505476   -0.000001
      3          6           0       -0.309986   -0.604754   -0.000002
      4          6           0       -0.567952    0.778237   -0.000001
      5          6           0       -1.910845    1.230250   -0.000001
      6          6           0       -2.940238    0.344731    0.000005
      7          1           0        1.218371   -2.115038   -0.000006
      8          1           0       -3.504606   -1.732512    0.000007
      9          1           0       -1.205662   -2.559705    0.000006
     10          6           0        1.036177   -1.057054   -0.000007
     11          6           0        0.533311    1.673956    0.000003
     12          1           0       -2.099718    2.286498    0.000005
     13          1           0       -3.954081    0.692512    0.000006
     14          6           0        1.805626    1.209506   -0.000010
     15          6           0        2.076961   -0.185349   -0.000008
     16          1           0        0.339503    2.729379    0.000009
     17          1           0        2.629913    1.896635    0.000000
     18          6           0        3.517862   -0.654224    0.000010
     19          1           0        4.038982   -0.285986   -0.877907
     20          1           0        4.038831   -0.286400    0.878193
     21          1           0        3.576482   -1.735347   -0.000241
 ---------------------------------------------------------------------
 Rotational constants (GHZ):           2.8485268           0.8310826           0.6459287
 Standard basis: VSTO-6G (5D, 7F)
 There are    54 symmetry adapted cartesian basis functions of A   symmetry.
 There are    54 symmetry adapted basis functions of A   symmetry.
    54 basis functions,   324 primitive gaussians,    54 cartesian basis functions
    27 alpha electrons       27 beta electrons
       nuclear repulsion energy       297.3031231234 Hartrees.
 Integral buffers will be    131072 words long.
 Regular integral format.
 Two-electron integral symmetry is turned off.
 Do NDO integrals.
 One-electron integrals computed using PRISM.
 NBasis=    54 RedAO= F EigKep=  0.00D+00  NBF=    54
 NBsUse=    54 1.00D-04 EigRej=  0.00D+00 NBFU=    54
 Simple Huckel Guess.
 Keep J ints in memory in canonical form, NReq=866898.
 Overlap will be assumed to be unity.
 Requested convergence on RMS density matrix=1.00D-08 within 128 cycles.
 Requested convergence on MAX density matrix=1.00D-06.
 Requested convergence on             energy=1.00D-06.
 No special actions if energy rises.
 SCF Done:  E(RAM1) =  0.610671301337E-01 A.U. after   15 cycles
            NFock= 14  Conv=0.77D-08     -V/T= 1.0007

 **********************************************************************

            Population analysis using the SCF Density.

 **********************************************************************

 Orbital symmetries:
       Occupied  (A) (A) (A) (A) (A) (A) (A) (A) (A) (A) (A) (A)
                 (A) (A) (A) (A) (A) (A) (A) (A) (A) (A) (A) (A)
                 (A) (A) (A)
       Virtual   (A) (A) (A) (A) (A) (A) (A) (A) (A) (A) (A) (A)
                 (A) (A) (A) (A) (A) (A) (A) (A) (A) (A) (A) (A)
                 (A) (A) (A)
 The electronic state is 1-A.
 Alpha  occ. eigenvalues --   -1.50437  -1.37901  -1.23599  -1.18794  -1.11412
 Alpha  occ. eigenvalues --   -1.02183  -0.88448  -0.84167  -0.83350  -0.67104
 Alpha  occ. eigenvalues --   -0.65070  -0.61682  -0.57057  -0.55733  -0.54333
 Alpha  occ. eigenvalues --   -0.53266  -0.51939  -0.50718  -0.50091  -0.48499
 Alpha  occ. eigenvalues --   -0.46026  -0.43790  -0.43501  -0.42554  -0.39245
 Alpha  occ. eigenvalues --   -0.34098  -0.32274
 Alpha virt. eigenvalues --   -0.00692   0.00645   0.04557   0.07782   0.12087
 Alpha virt. eigenvalues --    0.13568   0.14177   0.14737   0.14931   0.15139
 Alpha virt. eigenvalues --    0.16033   0.16256   0.16653   0.16771   0.16966
 Alpha virt. eigenvalues --    0.17235   0.18170   0.18494   0.19040   0.19325
 Alpha virt. eigenvalues --    0.19785   0.19960   0.20696   0.21074   0.21281
 Alpha virt. eigenvalues --    0.22191   0.22662
     Molecular Orbital Coefficients:
                           1         2         3         4         5
                           O         O         O         O         O
     Eigenvalues --    -1.50437  -1.37901  -1.23599  -1.18794  -1.11412
   1 1   C  1S          0.23257  -0.34748  -0.23229  -0.16273   0.37303
   2        1PX         0.06860  -0.05879  -0.06954   0.07827   0.05655
   3        1PY         0.04502  -0.06473   0.04441  -0.11072  -0.07321
   4        1PZ         0.00000  -0.00000  -0.00000  -0.00000   0.00000
   5 2   C  1S          0.27494  -0.25653  -0.32398   0.19953   0.27964
   6        1PX         0.01331   0.07824   0.01150   0.13746  -0.15796
   7        1PY         0.08760  -0.06559  -0.01642   0.02411  -0.01689
   8        1PZ         0.00000  -0.00000  -0.00000  -0.00000   0.00000
   9 3   C  1S          0.40617  -0.03695  -0.16285   0.40970  -0.15197
  10        1PX        -0.00619   0.15662  -0.00731   0.02284  -0.09247
  11        1PY         0.05166   0.01772   0.17139  -0.02969  -0.06538
  12        1PZ        -0.00000  -0.00000   0.00000  -0.00000   0.00000
  13 4   C  1S          0.40460  -0.05242   0.34409   0.14810  -0.20498
  14        1PX         0.01226   0.14882   0.01970   0.10472   0.13647
  15        1PY        -0.05173   0.02911   0.14627  -0.10875   0.04088
  16        1PZ         0.00000  -0.00000   0.00000  -0.00000  -0.00000
  17 5   C  1S          0.27411  -0.26636   0.26676  -0.25465  -0.33502
  18        1PX         0.04326   0.04633   0.08201   0.12674  -0.02824
  19        1PY        -0.07724   0.08867   0.01400   0.04329   0.01372
  20        1PZ         0.00000  -0.00000   0.00000  -0.00000  -0.00000
  21 6   C  1S          0.23224  -0.35019   0.01984  -0.39071  -0.04094
  22        1PX         0.08012  -0.07948   0.03548  -0.03338  -0.06463
  23        1PY        -0.01769   0.03745   0.10270  -0.01880  -0.17668
  24        1PZ        -0.00000   0.00000  -0.00000   0.00000   0.00000
  25 7   H  1S          0.08157   0.06905  -0.12231   0.04918  -0.09687
  26 8   H  1S          0.05890  -0.09998  -0.08054  -0.05953   0.14993
  27 9   H  1S          0.07583  -0.06616  -0.12122   0.08048   0.10353
  28 10  C  1S          0.29103   0.24799  -0.29228   0.15979  -0.24832
  29        1PX        -0.03520   0.08285  -0.01947  -0.18587   0.00139
  30        1PY         0.08106   0.08179   0.00576  -0.00288  -0.00233
  31        1PZ         0.00000   0.00000  -0.00000   0.00000  -0.00000
  32 11  C  1S          0.28270   0.20072   0.42198   0.04358   0.28477
  33        1PX        -0.00930   0.08995  -0.03645  -0.05348   0.18502
  34        1PY        -0.09002  -0.05021  -0.03888  -0.03724   0.01033
  35        1PZ        -0.00000  -0.00000  -0.00000  -0.00000  -0.00000
  36 12  H  1S          0.07539  -0.07025   0.10707  -0.09111  -0.12295
  37 13  H  1S          0.05878  -0.10078   0.00775  -0.14291  -0.01392
  38 14  C  1S          0.25130   0.33948   0.16748  -0.14724   0.39663
  39        1PX        -0.06699  -0.03187  -0.12602  -0.07393  -0.07365
  40        1PY        -0.05109  -0.07574   0.09686   0.04940   0.07404
  41        1PZ         0.00000   0.00000   0.00000  -0.00000   0.00000
  42 15  C  1S          0.26768   0.40442  -0.23075  -0.25783  -0.04837
  43        1PX        -0.07039  -0.03173  -0.02655  -0.14948   0.00216
  44        1PY         0.01448   0.02305   0.11744  -0.02327   0.18099
  45        1PZ         0.00000   0.00000  -0.00000  -0.00000  -0.00000
  46 16  H  1S          0.07746   0.04994   0.15345   0.00339   0.10010
  47 17  H  1S          0.06558   0.10363   0.04891  -0.07249   0.15221
  48 18  C  1S          0.09820   0.22046  -0.24451  -0.38602  -0.13763
  49        1PX        -0.04175  -0.07101   0.05151   0.04897   0.01636
  50        1PY         0.01268   0.02521   0.00051  -0.02846   0.02783
  51        1PZ        -0.00000  -0.00000   0.00000   0.00000   0.00000
  52 19  H  1S          0.03286   0.07611  -0.08378  -0.14566  -0.04452
  53 20  H  1S          0.03286   0.07611  -0.08378  -0.14566  -0.04452
  54 21  H  1S          0.03442   0.07575  -0.09785  -0.13669  -0.06987
                           6         7         8         9        10
                           O         O         O         O         O
     Eigenvalues --    -1.02183  -0.88448  -0.84167  -0.83350  -0.67104
   1 1   C  1S         -0.03836  -0.32620  -0.07780   0.13885   0.22299
   2        1PX         0.11883   0.14657  -0.15172  -0.04721  -0.11942
   3        1PY        -0.11971  -0.00774   0.23488   0.04569  -0.06377
   4        1PZ        -0.00000  -0.00000   0.00000   0.00000   0.00000
   5 2   C  1S          0.21706   0.20604  -0.20982  -0.18753  -0.22919
   6        1PX         0.00112   0.19630   0.19324  -0.11185  -0.11599
   7        1PY         0.02007   0.02341   0.12565   0.12794   0.07712
   8        1PZ         0.00000  -0.00000  -0.00000  -0.00000  -0.00000
   9 3   C  1S          0.05939   0.15253   0.32766   0.06568   0.03434
  10        1PX        -0.19854  -0.16357   0.05429  -0.07513   0.16334
  11        1PY         0.05750  -0.12926   0.04229   0.32558   0.00496
  12        1PZ         0.00000   0.00000  -0.00000   0.00000  -0.00000
  13 4   C  1S          0.25314  -0.17180  -0.05990   0.26561   0.00523
  14        1PX        -0.02086  -0.18782   0.17320  -0.02012  -0.25869
  15        1PY         0.02062  -0.13371  -0.23694  -0.22079  -0.03932
  16        1PZ         0.00000  -0.00000  -0.00000  -0.00000  -0.00000
  17 5   C  1S         -0.02957   0.23283  -0.26461  -0.14987   0.15957
  18        1PX         0.18998  -0.10572  -0.17433   0.15345   0.20408
  19        1PY         0.03020  -0.01195  -0.12796  -0.11686   0.03178
  20        1PZ        -0.00000   0.00000  -0.00000  -0.00000  -0.00000
  21 6   C  1S         -0.31526  -0.02473   0.31122  -0.06733  -0.21108
  22        1PX         0.03572   0.10835  -0.12217   0.00972   0.14566
  23        1PY        -0.01637   0.23147  -0.05964  -0.17205  -0.15973
  24        1PZ         0.00000  -0.00000  -0.00000  -0.00000  -0.00000
  25 7   H  1S         -0.11197  -0.09248  -0.05117  -0.20188   0.18679
  26 8   H  1S         -0.02334  -0.19493  -0.05102   0.06327   0.19309
  27 9   H  1S          0.07606   0.09194  -0.13817  -0.16628  -0.16923
  28 10  C  1S         -0.34928  -0.19613  -0.07945  -0.22176   0.20227
  29        1PX        -0.03205  -0.09715  -0.25872   0.06531  -0.16243
  30        1PY        -0.05452   0.00454  -0.01321   0.19626  -0.17197
  31        1PZ         0.00000  -0.00000   0.00000  -0.00000  -0.00000
  32 11  C  1S          0.08427  -0.24367   0.05190  -0.31056  -0.15657
  33        1PX        -0.12133   0.21420   0.12056  -0.06130   0.16851
  34        1PY         0.00358   0.01710  -0.02405  -0.18726   0.08400
  35        1PZ         0.00000  -0.00000  -0.00000  -0.00000  -0.00000
  36 12  H  1S         -0.01289   0.09877  -0.16611  -0.14750   0.07505
  37 13  H  1S         -0.14660  -0.02633   0.18634  -0.06463  -0.22352
  38 14  C  1S         -0.12312   0.35209   0.05483   0.05694   0.20830
  39        1PX         0.02179   0.15782  -0.05342   0.14381   0.14740
  40        1PY         0.05218  -0.02690   0.12611  -0.23788   0.23626
  41        1PZ         0.00000   0.00000   0.00000  -0.00000  -0.00000
  42 15  C  1S         -0.12379   0.04765  -0.26713   0.22303  -0.24320
  43        1PX         0.26365   0.06614   0.08093  -0.00682  -0.00745
  44        1PY        -0.00166   0.25170   0.06544   0.17139   0.03042
  45        1PZ         0.00000  -0.00000   0.00000  -0.00000  -0.00000
  46 16  H  1S          0.04683  -0.11232  -0.00646  -0.23200  -0.04200
  47 17  H  1S         -0.02070   0.20354   0.04728   0.00093   0.27200
  48 18  C  1S          0.49428  -0.07230   0.20147  -0.11884   0.03776
  49        1PX         0.06232  -0.00962   0.14298  -0.07930   0.14859
  50        1PY        -0.00300   0.07543  -0.01879   0.07840  -0.02801
  51        1PZ         0.00000  -0.00000   0.00000  -0.00000  -0.00000
  52 19  H  1S          0.21278  -0.01623   0.12133  -0.05668   0.06156
  53 20  H  1S          0.21278  -0.01625   0.12132  -0.05669   0.06154
  54 21  H  1S          0.19907  -0.07454   0.09871  -0.10360   0.04807
                          11        12        13        14        15
                           O         O         O         O         O
     Eigenvalues --    -0.65070  -0.61682  -0.57057  -0.55733  -0.54333
   1 1   C  1S          0.06942  -0.02043   0.12741   0.00597  -0.00000
   2        1PX        -0.21765  -0.23152   0.01224   0.16540  -0.00001
   3        1PY        -0.26420   0.16212   0.02966   0.28207   0.00000
   4        1PZ         0.00000   0.00000   0.00000  -0.00000   0.13854
   5 2   C  1S          0.00094  -0.00557  -0.08934   0.01576   0.00000
   6        1PX        -0.01797   0.28490   0.01268  -0.00504   0.00001
   7        1PY        -0.27495  -0.00761   0.33051   0.01211  -0.00002
   8        1PZ         0.00000   0.00000   0.00000  -0.00000   0.18015
   9 3   C  1S          0.05472   0.04230   0.20697  -0.12732  -0.00001
  10        1PX         0.28254  -0.09072   0.03188   0.16006   0.00000
  11        1PY        -0.02206  -0.22274  -0.12723  -0.24747  -0.00000
  12        1PZ        -0.00000   0.00000   0.00000  -0.00000   0.29529
  13 4   C  1S          0.02686   0.09315  -0.24603  -0.03549   0.00001
  14        1PX         0.16858  -0.09971   0.01046   0.02486  -0.00001
  15        1PY         0.09105   0.21776  -0.00661   0.30212   0.00000
  16        1PZ         0.00000   0.00000   0.00000  -0.00000   0.27542
  17 5   C  1S          0.09036  -0.09639   0.09008  -0.00088   0.00000
  18        1PX        -0.06768   0.24839  -0.10312   0.05880   0.00001
  19        1PY         0.29012   0.05690   0.25050  -0.16560  -0.00001
  20        1PZ         0.00000  -0.00000   0.00000  -0.00000   0.17204
  21 6   C  1S         -0.02442   0.06800  -0.11796   0.04545   0.00000
  22        1PX        -0.23052  -0.23333   0.09848   0.27749   0.00000
  23        1PY         0.13345  -0.20676  -0.07200  -0.19667  -0.00000
  24        1PZ         0.00000   0.00000   0.00000  -0.00000   0.13597
  25 7   H  1S         -0.11164   0.11147  -0.27447   0.04669   0.00000
  26 8   H  1S          0.25586   0.04147   0.05026  -0.22680   0.00000
  27 9   H  1S          0.17191   0.04387  -0.29438   0.00106   0.00001
  28 10  C  1S         -0.03592  -0.01729  -0.07344   0.06547   0.00000
  29        1PX        -0.28240  -0.06069  -0.14204  -0.19474   0.00000
  30        1PY         0.10607  -0.19337   0.28287  -0.04979  -0.00000
  31        1PZ         0.00000   0.00000   0.00001  -0.00000   0.29521
  32 11  C  1S         -0.09719   0.00502   0.10639   0.02540  -0.00000
  33        1PX        -0.12203  -0.27126  -0.02830  -0.14456   0.00001
  34        1PY        -0.19425   0.18792   0.30075  -0.16736  -0.00001
  35        1PZ        -0.00000   0.00000   0.00001  -0.00000   0.23347
  36 12  H  1S          0.23589  -0.03476   0.25300  -0.13309  -0.00001
  37 13  H  1S          0.16002   0.14197  -0.15111  -0.21791  -0.00000
  38 14  C  1S          0.02268  -0.00218  -0.13566   0.00675   0.00000
  39        1PX         0.05596   0.32743  -0.03362  -0.05217  -0.00000
  40        1PY        -0.18336  -0.03138  -0.10581  -0.28985   0.00000
  41        1PZ        -0.00000  -0.00000   0.00001  -0.00000   0.26256
  42 15  C  1S         -0.06508   0.11379   0.13478  -0.04959  -0.00000
  43        1PX        -0.01957   0.25532   0.01162  -0.10374  -0.00000
  44        1PY         0.24584   0.09082   0.03516   0.29217  -0.00000
  45        1PZ        -0.00000  -0.00000   0.00001  -0.00000   0.37440
  46 16  H  1S         -0.15152   0.16357   0.28737  -0.09369  -0.00001
  47 17  H  1S         -0.03392   0.15779  -0.14273  -0.15771   0.00000
  48 18  C  1S          0.04449  -0.06722   0.00979   0.01850   0.00000
  49        1PX         0.14224  -0.19676  -0.05245   0.24117  -0.00001
  50        1PY         0.07620   0.16926   0.10446   0.13058  -0.00000
  51        1PZ         0.00000  -0.00001   0.00002   0.00000   0.46302
  52 19  H  1S          0.08503  -0.05707   0.01193   0.13024  -0.29327
  53 20  H  1S          0.08500  -0.05711   0.01193   0.13018   0.29335
  54 21  H  1S         -0.02974  -0.15609  -0.08697  -0.07902  -0.00008
                          16        17        18        19        20
                           O         O         O         O         O
     Eigenvalues --    -0.53266  -0.51939  -0.50718  -0.50091  -0.48499
   1 1   C  1S         -0.00693   0.04784   0.00000   0.04567  -0.02981
   2        1PX         0.23108   0.23928   0.00001  -0.27682  -0.01422
   3        1PY        -0.15807   0.02363  -0.00001  -0.11226  -0.11010
   4        1PZ         0.00000   0.00001  -0.26864   0.00001   0.00001
   5 2   C  1S         -0.02370   0.00101  -0.00000  -0.08937   0.01286
   6        1PX        -0.30765  -0.14407  -0.00001   0.16531  -0.00599
   7        1PY        -0.08619   0.35658   0.00001  -0.08350   0.08350
   8        1PZ         0.00001   0.00001  -0.27856   0.00001   0.00000
   9 3   C  1S         -0.00054  -0.00499  -0.00000   0.05235  -0.03202
  10        1PX         0.23845  -0.13769  -0.00000  -0.03158  -0.18829
  11        1PY         0.19131  -0.00378   0.00000  -0.04542   0.06920
  12        1PZ         0.00001   0.00002  -0.31209   0.00001   0.00000
  13 4   C  1S          0.03346   0.01379   0.00000  -0.04381   0.01311
  14        1PX         0.18678   0.27541   0.00001   0.04011  -0.16524
  15        1PY        -0.09027   0.05117  -0.00000  -0.08229  -0.11054
  16        1PZ         0.00001   0.00002  -0.34442   0.00001   0.00000
  17 5   C  1S         -0.05631  -0.02565  -0.00000   0.07882  -0.01063
  18        1PX        -0.24568  -0.13626  -0.00001  -0.14951   0.10283
  19        1PY        -0.19835   0.32298   0.00000  -0.16207   0.00233
  20        1PZ         0.00001   0.00001  -0.29481   0.00001   0.00000
  21 6   C  1S          0.04339  -0.03117  -0.00000  -0.04886  -0.01789
  22        1PX         0.16746  -0.12187  -0.00000   0.27881  -0.19227
  23        1PY         0.23706   0.03101   0.00001   0.05829   0.08002
  24        1PZ         0.00001   0.00001  -0.27443   0.00000   0.00001
  25 7   H  1S          0.04468   0.27494   0.00002   0.14228   0.12353
  26 8   H  1S         -0.06493  -0.13016   0.00000   0.26408   0.05013
  27 9   H  1S          0.00824  -0.28920  -0.00001   0.04422  -0.05836
  28 10  C  1S          0.06843   0.02312   0.00000  -0.07569   0.06908
  29        1PX        -0.13583   0.03640  -0.00000  -0.08962   0.18911
  30        1PY        -0.04081  -0.34289  -0.00003  -0.25202  -0.08761
  31        1PZ         0.00001   0.00001  -0.08272   0.00000   0.00000
  32 11  C  1S          0.03487  -0.00592   0.00000   0.09213   0.01296
  33        1PX        -0.22857  -0.07444   0.00000   0.16923   0.16447
  34        1PY         0.18404  -0.29480  -0.00001  -0.13930   0.07071
  35        1PZ         0.00001   0.00001  -0.17097  -0.00000  -0.00000
  36 12  H  1S         -0.14511   0.24879   0.00000  -0.06549  -0.01935
  37 13  H  1S         -0.03952   0.08077   0.00000  -0.23357   0.16610
  38 14  C  1S         -0.06896   0.04812   0.00000  -0.04155  -0.03560
  39        1PX         0.30926   0.01380  -0.00000  -0.27835  -0.18163
  40        1PY         0.08653  -0.02386   0.00001  -0.08237  -0.02417
  41        1PZ         0.00001   0.00001  -0.04609  -0.00000  -0.00000
  42 15  C  1S         -0.00552  -0.04903  -0.00000   0.06424  -0.00584
  43        1PX         0.19893   0.17326   0.00002   0.35082  -0.12759
  44        1PY         0.01526   0.03743  -0.00000   0.01935  -0.00647
  45        1PZ         0.00000   0.00001   0.08931  -0.00000  -0.00000
  46 16  H  1S          0.18855  -0.21377  -0.00001  -0.08425   0.04117
  47 17  H  1S          0.19177   0.02415   0.00000  -0.24904  -0.14001
  48 18  C  1S         -0.01241  -0.01193   0.00000   0.01861  -0.00798
  49        1PX        -0.07876  -0.10101  -0.00002  -0.30679   0.28358
  50        1PY         0.26848   0.02135   0.00002   0.15385   0.50112
  51        1PZ        -0.00001  -0.00001   0.47230  -0.00002  -0.00000
  52 19  H  1S          0.03892  -0.04040  -0.31834  -0.07251   0.25795
  53 20  H  1S          0.03884  -0.04041   0.31843  -0.07254   0.25775
  54 21  H  1S         -0.22310  -0.01603  -0.00011  -0.12651  -0.42145
                          21        22        23        24        25
                           O         O         O         O         O
     Eigenvalues --    -0.46026  -0.43790  -0.43501  -0.42554  -0.39245
   1 1   C  1S          0.00963   0.01448   0.00000   0.00121   0.00000
   2        1PX         0.02189  -0.26049  -0.00000   0.00180  -0.00000
   3        1PY         0.31661   0.01449  -0.00000  -0.21714   0.00000
   4        1PZ         0.00000  -0.00001  -0.40819   0.00000  -0.16930
   5 2   C  1S          0.03265   0.00902   0.00000   0.01939   0.00000
   6        1PX         0.03011   0.28352  -0.00000   0.04798   0.00000
   7        1PY        -0.21056   0.03250  -0.00000   0.24837  -0.00000
   8        1PZ         0.00000  -0.00001  -0.25976  -0.00000  -0.38885
   9 3   C  1S         -0.00998  -0.00262  -0.00000   0.00767  -0.00000
  10        1PX         0.13276  -0.28907   0.00000   0.02740   0.00000
  11        1PY         0.07832  -0.00030  -0.00000  -0.34637   0.00000
  12        1PZ         0.00000  -0.00000   0.04522   0.00000  -0.34188
  13 4   C  1S          0.00464  -0.00158  -0.00000   0.01226   0.00000
  14        1PX         0.10597   0.29806  -0.00001  -0.02621  -0.00000
  15        1PY        -0.02659   0.00047   0.00000   0.34942  -0.00000
  16        1PZ        -0.00000   0.00000   0.10278   0.00000   0.27350
  17 5   C  1S          0.02642  -0.00730   0.00000   0.01374  -0.00000
  18        1PX         0.01698  -0.30102   0.00000   0.06408   0.00000
  19        1PY         0.22756   0.02069  -0.00000  -0.21762   0.00000
  20        1PZ        -0.00000  -0.00000  -0.21248   0.00000   0.41683
  21 6   C  1S          0.01588  -0.01424  -0.00000  -0.00051   0.00000
  22        1PX         0.06236   0.25987  -0.00001  -0.02167   0.00000
  23        1PY        -0.30045   0.00797   0.00000   0.21731  -0.00000
  24        1PZ        -0.00000  -0.00001  -0.38655   0.00000   0.25575
  25 7   H  1S         -0.15892   0.03628  -0.00000  -0.23712  -0.00000
  26 8   H  1S         -0.19111   0.19322  -0.00000   0.13706  -0.00000
  27 9   H  1S          0.20821   0.02886  -0.00000  -0.22933   0.00000
  28 10  C  1S         -0.00005  -0.01256  -0.00000   0.02338   0.00000
  29        1PX         0.02226   0.31001  -0.00000  -0.04562  -0.00000
  30        1PY         0.17814   0.00450   0.00000   0.23765  -0.00000
  31        1PZ         0.00000   0.00000   0.23065   0.00000  -0.41179
  32 11  C  1S         -0.02701   0.00964   0.00000   0.01534   0.00000
  33        1PX         0.11972  -0.25723   0.00001  -0.03985   0.00000
  34        1PY        -0.16812  -0.06393  -0.00000  -0.25921  -0.00000
  35        1PZ        -0.00000   0.00000   0.34923  -0.00000   0.35799
  36 12  H  1S          0.21121   0.06387  -0.00000  -0.22444   0.00000
  37 13  H  1S         -0.12930  -0.24316   0.00000   0.08931  -0.00000
  38 14  C  1S         -0.03571  -0.00011  -0.00000  -0.00292  -0.00000
  39        1PX        -0.05320   0.23584  -0.00000  -0.00531  -0.00000
  40        1PY         0.32647   0.04103  -0.00001   0.24913   0.00000
  41        1PZ         0.00000   0.00000   0.41384  -0.00000   0.18865
  42 15  C  1S         -0.00853  -0.02005  -0.00000  -0.00108   0.00000
  43        1PX         0.12427  -0.24947  -0.00000   0.01728   0.00000
  44        1PY        -0.31011  -0.06037   0.00000  -0.24942  -0.00000
  45        1PZ         0.00000   0.00000   0.29601   0.00000  -0.20094
  46 16  H  1S         -0.17947  -0.00540  -0.00000  -0.24402  -0.00000
  47 17  H  1S          0.13030   0.20367  -0.00000   0.15232   0.00000
  48 18  C  1S          0.02639  -0.04583   0.00000   0.02175   0.00000
  49        1PX        -0.12792   0.25551   0.00000  -0.07641  -0.00000
  50        1PY         0.27180   0.00516   0.00000   0.09240   0.00000
  51        1PZ        -0.00001   0.00001  -0.23688  -0.00000   0.07618
  52 19  H  1S          0.04748   0.09142   0.18515   0.01309  -0.06999
  53 20  H  1S          0.04739   0.09139  -0.18520   0.01306   0.07001
  54 21  H  1S         -0.24672  -0.01918   0.00005  -0.09382  -0.00002
                          26        27        28        29        30
                           O         O         V         V         V
     Eigenvalues --    -0.34098  -0.32274  -0.00692   0.00645   0.04557
   1 1   C  1S          0.00000   0.00000   0.00000  -0.00000   0.00000
   2        1PX        -0.00000  -0.00000  -0.00000   0.00000  -0.00000
   3        1PY         0.00000   0.00000   0.00000   0.00000   0.00000
   4        1PZ        -0.40006  -0.23156  -0.26517   0.38125  -0.19664
   5 2   C  1S         -0.00000   0.00000  -0.00000   0.00000  -0.00000
   6        1PX        -0.00000   0.00000  -0.00000  -0.00000   0.00000
   7        1PY        -0.00000  -0.00000   0.00000   0.00000   0.00000
   8        1PZ        -0.07465  -0.40772   0.41756  -0.02840   0.39162
   9 3   C  1S          0.00000   0.00000  -0.00000  -0.00000  -0.00000
  10        1PX         0.00000  -0.00000  -0.00000  -0.00000  -0.00000
  11        1PY        -0.00000   0.00000   0.00000   0.00000  -0.00000
  12        1PZ         0.43903  -0.04943  -0.02147  -0.46736  -0.31779
  13 4   C  1S          0.00000   0.00000   0.00000  -0.00000   0.00000
  14        1PX        -0.00000   0.00000  -0.00000  -0.00000  -0.00000
  15        1PY        -0.00000  -0.00000   0.00000  -0.00000   0.00000
  16        1PZ         0.46735  -0.05787   0.00966   0.47292  -0.30118
  17 5   C  1S          0.00000  -0.00000  -0.00000   0.00000  -0.00000
  18        1PX         0.00000   0.00000   0.00000  -0.00000   0.00000
  19        1PY        -0.00000  -0.00000  -0.00000  -0.00000  -0.00000
  20        1PZ         0.06725   0.39958   0.41670  -0.01271   0.39927
  21 6   C  1S         -0.00000   0.00000  -0.00000  -0.00000  -0.00000
  22        1PX        -0.00000   0.00000  -0.00000  -0.00000  -0.00000
  23        1PY         0.00000  -0.00000   0.00000  -0.00000   0.00000
  24        1PZ        -0.31143   0.30931  -0.28757  -0.35506  -0.21828
  25 7   H  1S         -0.00000   0.00000   0.00000   0.00000  -0.00000
  26 8   H  1S         -0.00000  -0.00000  -0.00000   0.00000  -0.00000
  27 9   H  1S          0.00000   0.00000   0.00000   0.00000   0.00000
  28 10  C  1S          0.00000  -0.00000   0.00000   0.00000  -0.00000
  29        1PX        -0.00000   0.00000  -0.00000  -0.00000   0.00000
  30        1PY        -0.00000   0.00000   0.00000   0.00000  -0.00000
  31        1PZ         0.00338   0.43447  -0.41190  -0.00499   0.40310
  32 11  C  1S         -0.00000  -0.00000  -0.00000  -0.00000   0.00000
  33        1PX         0.00000  -0.00000  -0.00000  -0.00000   0.00000
  34        1PY         0.00000   0.00000   0.00000   0.00000  -0.00000
  35        1PZ        -0.08142  -0.39955  -0.40897   0.03092   0.39199
  36 12  H  1S         -0.00000   0.00000   0.00000   0.00000   0.00000
  37 13  H  1S          0.00000  -0.00000   0.00000   0.00000   0.00000
  38 14  C  1S          0.00000   0.00000  -0.00000   0.00000   0.00000
  39        1PX        -0.00000  -0.00000  -0.00000  -0.00000   0.00000
  40        1PY         0.00000  -0.00000  -0.00000   0.00000   0.00000
  41        1PZ        -0.42127  -0.21656   0.26562  -0.37962  -0.21084
  42 15  C  1S          0.00000  -0.00000  -0.00000  -0.00000   0.00000
  43        1PX         0.00000  -0.00000  -0.00000  -0.00000   0.00000
  44        1PY        -0.00000   0.00000   0.00000   0.00000  -0.00000
  45        1PZ        -0.33568   0.32794   0.29294   0.36351  -0.21235
  46 16  H  1S         -0.00000   0.00000   0.00000   0.00000  -0.00000
  47 17  H  1S         -0.00000  -0.00000   0.00000  -0.00000  -0.00000
  48 18  C  1S          0.00000  -0.00000   0.00000   0.00000  -0.00000
  49        1PX        -0.00000   0.00000  -0.00000  -0.00000   0.00000
  50        1PY        -0.00000  -0.00000   0.00000  -0.00000  -0.00000
  51        1PZ         0.09072  -0.06606   0.00011   0.01243  -0.01140
  52 19  H  1S         -0.09131   0.07678   0.05077   0.06377  -0.04107
  53 20  H  1S          0.09134  -0.07681  -0.05078  -0.06379   0.04108
  54 21  H  1S         -0.00003   0.00002   0.00002   0.00002  -0.00001
                          31        32        33        34        35
                           V         V         V         V         V
     Eigenvalues --     0.07782   0.12087   0.13568   0.14177   0.14737
   1 1   C  1S         -0.00000   0.00000  -0.04289   0.08009   0.17449
   2        1PX         0.00000  -0.00000  -0.04161   0.05490  -0.13080
   3        1PY         0.00000   0.00000   0.20199   0.01142  -0.03532
   4        1PZ         0.41447  -0.27114   0.00000   0.00000   0.00000
   5 2   C  1S          0.00000  -0.00000   0.07187  -0.08238  -0.25759
   6        1PX        -0.00000  -0.00000   0.03153   0.02567  -0.21747
   7        1PY        -0.00000   0.00000   0.24956  -0.00703  -0.04465
   8        1PZ        -0.27312   0.31004  -0.00000  -0.00000  -0.00000
   9 3   C  1S          0.00000   0.00000  -0.10198   0.23541   0.29690
  10        1PX         0.00000  -0.00000  -0.09471   0.16539  -0.21024
  11        1PY        -0.00000   0.00000   0.32529   0.03758   0.03734
  12        1PZ        -0.01251  -0.42384   0.00000   0.00000   0.00000
  13 4   C  1S          0.00000  -0.00000   0.02715  -0.04362  -0.29382
  14        1PX         0.00000  -0.00000  -0.06131   0.12792  -0.21777
  15        1PY         0.00000   0.00000   0.27328   0.17611   0.03877
  16        1PZ         0.02468   0.42733  -0.00000  -0.00000  -0.00000
  17 5   C  1S         -0.00000   0.00000  -0.04191   0.08768   0.15637
  18        1PX         0.00000  -0.00000  -0.09681   0.08016  -0.08303
  19        1PY        -0.00000   0.00000   0.18376   0.08872   0.03355
  20        1PZ         0.26391  -0.31214   0.00000   0.00000   0.00000
  21 6   C  1S         -0.00000  -0.00000   0.01096  -0.01769  -0.11524
  22        1PX        -0.00000  -0.00000  -0.04055   0.05068  -0.11754
  23        1PY        -0.00000   0.00000   0.17930   0.05332   0.01444
  24        1PZ        -0.41031   0.27186  -0.00000  -0.00000  -0.00000
  25 7   H  1S         -0.00000   0.00000   0.21997   0.10286   0.13327
  26 8   H  1S          0.00000  -0.00000   0.14784  -0.02199  -0.28299
  27 9   H  1S         -0.00000   0.00000   0.19115   0.05828   0.22192
  28 10  C  1S         -0.00000  -0.00000   0.10082  -0.18495  -0.14671
  29        1PX         0.00000  -0.00000  -0.10828   0.17066  -0.07858
  30        1PY        -0.00000  -0.00000   0.27694  -0.02954  -0.00574
  31        1PZ         0.27234   0.28415   0.00000  -0.00001  -0.00000
  32 11  C  1S          0.00000   0.00000  -0.03141   0.10387   0.21910
  33        1PX         0.00000  -0.00000   0.00355   0.16443  -0.23282
  34        1PY         0.00000   0.00000   0.20993   0.18572  -0.07074
  35        1PZ        -0.29859  -0.29547   0.00000   0.00000   0.00000
  36 12  H  1S          0.00000  -0.00000  -0.17298  -0.15139  -0.18281
  37 13  H  1S          0.00000  -0.00000  -0.11670   0.05041  -0.01335
  38 14  C  1S         -0.00000  -0.00000  -0.01401  -0.09140  -0.11976
  39        1PX         0.00000  -0.00000  -0.04898   0.14140  -0.14042
  40        1PY        -0.00000   0.00000   0.20834   0.22238  -0.09650
  41        1PZ         0.41772   0.24141   0.00000  -0.00001  -0.00000
  42 15  C  1S          0.00000   0.00001  -0.10118   0.34173   0.06337
  43        1PX         0.00000   0.00000  -0.11330   0.29056  -0.13595
  44        1PY        -0.00000   0.00000   0.28320   0.03552  -0.04441
  45        1PZ        -0.39652  -0.22484  -0.00000   0.00001  -0.00000
  46 16  H  1S         -0.00000  -0.00000  -0.19210  -0.25323  -0.16179
  47 17  H  1S          0.00000   0.00000  -0.09232  -0.18240   0.28236
  48 18  C  1S         -0.00000  -0.00000   0.10626  -0.22017   0.00074
  49        1PX         0.00001   0.00001  -0.19227   0.45287  -0.08184
  50        1PY        -0.00000  -0.00000   0.20108  -0.05092  -0.05086
  51        1PZ        -0.05673  -0.07910  -0.00000   0.00000   0.00001
  52 19  H  1S         -0.09107  -0.08255  -0.06719  -0.02215   0.05185
  53 20  H  1S          0.09110   0.08257  -0.06713  -0.02212   0.05181
  54 21  H  1S         -0.00003  -0.00002   0.13275   0.10262  -0.05241
                          36        37        38        39        40
                           V         V         V         V         V
     Eigenvalues --     0.14931   0.15139   0.16033   0.16256   0.16653
   1 1   C  1S         -0.09031  -0.12831  -0.17240  -0.11875   0.19978
   2        1PX         0.15598  -0.08809   0.11817   0.21031   0.05777
   3        1PY         0.06103  -0.23071  -0.16296   0.09649   0.19873
   4        1PZ        -0.00000  -0.00000  -0.00000  -0.00000   0.00000
   5 2   C  1S          0.01259   0.10262   0.05518  -0.22632  -0.02352
   6        1PX         0.14642  -0.09415   0.00413  -0.07623   0.16146
   7        1PY         0.12825  -0.18951  -0.14032   0.14823   0.05245
   8        1PZ         0.00000   0.00000   0.00000  -0.00000  -0.00000
   9 3   C  1S         -0.05409  -0.07715   0.17034  -0.03869  -0.23300
  10        1PX         0.10552  -0.14880   0.09791  -0.15871   0.10005
  11        1PY         0.13792  -0.11032   0.05884  -0.01239  -0.18616
  12        1PZ        -0.00000  -0.00000  -0.00000   0.00000   0.00000
  13 4   C  1S         -0.32365   0.03949  -0.02362   0.03990   0.29883
  14        1PX         0.17569  -0.09820   0.08809  -0.22035   0.01735
  15        1PY        -0.14156  -0.13470   0.18708  -0.00789  -0.12892
  16        1PZ         0.00000  -0.00000   0.00000  -0.00000  -0.00000
  17 5   C  1S          0.18040  -0.12445  -0.11794  -0.33250  -0.04612
  18        1PX         0.29240  -0.04410   0.15304  -0.02371  -0.13305
  19        1PY        -0.17337  -0.18363   0.02290  -0.08997   0.07404
  20        1PZ        -0.00000  -0.00000  -0.00000  -0.00000   0.00000
  21 6   C  1S         -0.19239   0.14844   0.24628   0.02798  -0.15404
  22        1PX         0.22150  -0.05329   0.13346   0.16518  -0.02381
  23        1PY        -0.13592  -0.20608  -0.10976   0.05538   0.21725
  24        1PZ         0.00000  -0.00000  -0.00000  -0.00000   0.00000
  25 7   H  1S          0.17563   0.08958   0.35750  -0.18806   0.13112
  26 8   H  1S          0.23721  -0.10257   0.12932   0.30385   0.00041
  27 9   H  1S          0.08559  -0.25895  -0.18794   0.33272   0.03101
  28 10  C  1S         -0.05585   0.03250  -0.33775   0.12076  -0.18600
  29        1PX         0.04515  -0.11752  -0.02069  -0.17572  -0.23948
  30        1PY         0.13632   0.09837   0.07229  -0.12150  -0.05242
  31        1PZ         0.00000   0.00000   0.00000  -0.00000  -0.00000
  32 11  C  1S          0.13676   0.19512  -0.12655   0.15843  -0.14388
  33        1PX        -0.01261  -0.01635  -0.02387  -0.09528   0.16323
  34        1PY        -0.15860   0.04427   0.16282   0.09094  -0.03850
  35        1PZ        -0.00000   0.00000   0.00000   0.00000   0.00000
  36 12  H  1S          0.06657   0.28817   0.09971   0.35100  -0.05366
  37 13  H  1S          0.42451  -0.11395  -0.04846   0.10527   0.03639
  38 14  C  1S         -0.19526  -0.25861   0.03010  -0.00238  -0.28513
  39        1PX         0.00921  -0.03191  -0.13220  -0.00300  -0.21367
  40        1PY        -0.07095   0.19236   0.06641   0.01248   0.08621
  41        1PZ        -0.00000  -0.00000   0.00000  -0.00000  -0.00001
  42 15  C  1S         -0.05194   0.16770   0.06963   0.12460   0.31410
  43        1PX        -0.02490  -0.03970  -0.22402   0.06398  -0.12772
  44        1PY         0.09837   0.24460  -0.01981  -0.04441   0.05356
  45        1PZ        -0.00000   0.00000  -0.00000   0.00001   0.00001
  46 16  H  1S          0.03570  -0.22164  -0.05801  -0.23601   0.17444
  47 17  H  1S          0.20901   0.12215   0.03509  -0.00118   0.32159
  48 18  C  1S          0.03106  -0.03802  -0.00235  -0.05945  -0.11784
  49        1PX        -0.03685   0.08136  -0.23693   0.07357   0.01958
  50        1PY         0.13178   0.25974  -0.26328  -0.19385  -0.05499
  51        1PZ         0.00001  -0.00000   0.00001  -0.00002  -0.00002
  52 19  H  1S         -0.05473  -0.09910   0.18842   0.07106   0.08782
  53 20  H  1S         -0.05470  -0.09899   0.18828   0.07103   0.08783
  54 21  H  1S          0.10311   0.28113  -0.24304  -0.12855   0.03505
                          41        42        43        44        45
                           V         V         V         V         V
     Eigenvalues --     0.16771   0.16966   0.17235   0.18170   0.18494
   1 1   C  1S          0.30734   0.00003  -0.09096   0.07003   0.10380
   2        1PX         0.10140   0.00003   0.19059  -0.14405   0.11654
   3        1PY        -0.13353  -0.00001  -0.03128  -0.09033   0.06300
   4        1PZ         0.00000  -0.00715  -0.00000   0.00000  -0.00000
   5 2   C  1S         -0.29692  -0.00005  -0.17850  -0.05231   0.06684
   6        1PX         0.13131   0.00001  -0.08935  -0.02220   0.19720
   7        1PY        -0.14221  -0.00001  -0.01283   0.20511  -0.20587
   8        1PZ        -0.00000   0.01429  -0.00000  -0.00000   0.00000
   9 3   C  1S          0.10657   0.00001   0.23493  -0.03780  -0.01417
  10        1PX        -0.07171  -0.00000   0.03566   0.00145   0.08426
  11        1PY        -0.19557  -0.00003  -0.05125  -0.00935   0.04171
  12        1PZ         0.00000  -0.04007   0.00000   0.00000   0.00000
  13 4   C  1S          0.14575   0.00004  -0.01274   0.00908   0.06235
  14        1PX         0.07522  -0.00001  -0.09017  -0.04695  -0.16463
  15        1PY         0.05694   0.00001   0.14959   0.06917  -0.01882
  16        1PZ        -0.00000   0.02650  -0.00000  -0.00000  -0.00000
  17 5   C  1S         -0.11754  -0.00004  -0.18775  -0.10666  -0.06971
  18        1PX        -0.05029  -0.00001   0.11300  -0.05504  -0.12184
  19        1PY        -0.06576   0.00000   0.14964  -0.28011   0.12912
  20        1PZ        -0.00000  -0.01050  -0.00000  -0.00000   0.00000
  21 6   C  1S         -0.16576  -0.00000   0.26504  -0.03931  -0.07079
  22        1PX         0.25456   0.00003   0.05260  -0.09760   0.10537
  23        1PY         0.02005   0.00002   0.09454   0.00646   0.04558
  24        1PZ        -0.00000   0.00648  -0.00000   0.00000   0.00000
  25 7   H  1S          0.00276  -0.00000   0.01394   0.37180   0.01273
  26 8   H  1S         -0.24758  -0.00001   0.18080  -0.19047   0.03321
  27 9   H  1S          0.08454   0.00003   0.13756   0.20332  -0.24360
  28 10  C  1S         -0.04865  -0.00001  -0.13069  -0.10359  -0.00236
  29        1PX         0.11084   0.00001   0.12855  -0.04287   0.06389
  30        1PY        -0.00919  -0.00000  -0.06746   0.34734   0.00684
  31        1PZ        -0.00001   0.08591  -0.00000  -0.00000  -0.00000
  32 11  C  1S         -0.14365  -0.00002  -0.19785  -0.11706   0.06346
  33        1PX        -0.04924   0.00000  -0.02953   0.01809  -0.12132
  34        1PY         0.15397   0.00001  -0.14553  -0.20723   0.17691
  35        1PZ         0.00001  -0.03916   0.00000  -0.00000   0.00000
  36 12  H  1S          0.13804   0.00003   0.02408   0.29413  -0.06911
  37 13  H  1S          0.34316   0.00002  -0.18400  -0.05026   0.11934
  38 14  C  1S          0.16927   0.00001   0.03050   0.06408   0.00786
  39        1PX        -0.00076  -0.00001  -0.21497   0.05754  -0.17046
  40        1PY         0.17253   0.00001  -0.12643   0.08195  -0.12158
  41        1PZ        -0.00000   0.07643  -0.00001  -0.00000  -0.00000
  42 15  C  1S         -0.09429  -0.00000  -0.01343   0.01590  -0.04441
  43        1PX        -0.21367  -0.00001  -0.00106   0.15531   0.01404
  44        1PY         0.07848   0.00000  -0.14036  -0.03216  -0.00428
  45        1PZ         0.00001  -0.18110   0.00001   0.00000   0.00000
  46 16  H  1S         -0.03446   0.00000   0.26632   0.25226  -0.20505
  47 17  H  1S         -0.23360  -0.00001   0.19064  -0.12200   0.17314
  48 18  C  1S          0.05484   0.00002   0.01511   0.16090   0.39978
  49        1PX        -0.19966  -0.00000   0.15596   0.22684   0.23460
  50        1PY         0.21204   0.00003   0.35647  -0.13341  -0.06792
  51        1PZ        -0.00007   0.69157  -0.00004  -0.00001  -0.00002
  52 19  H  1S         -0.01690   0.48543  -0.17807  -0.15389  -0.32847
  53 20  H  1S         -0.01676  -0.48561  -0.17788  -0.15390  -0.32844
  54 21  H  1S          0.15334   0.00016   0.28538  -0.22948  -0.32222
                          46        47        48        49        50
                           V         V         V         V         V
     Eigenvalues --     0.19040   0.19325   0.19785   0.19960   0.20696
   1 1   C  1S          0.13187   0.14555   0.08318   0.16190   0.01481
   2        1PX         0.08196  -0.00542   0.29558  -0.07975  -0.32855
   3        1PY         0.14261  -0.15168   0.06626  -0.19429   0.37291
   4        1PZ         0.00000   0.00000  -0.00000   0.00000   0.00000
   5 2   C  1S          0.09769  -0.10547  -0.20185   0.04770   0.17130
   6        1PX         0.22321   0.12190   0.05961   0.22660  -0.31028
   7        1PY         0.03670   0.19448  -0.24944  -0.07560  -0.12739
   8        1PZ         0.00000  -0.00000   0.00000  -0.00000   0.00000
   9 3   C  1S          0.02107  -0.00456   0.00119  -0.03431   0.06492
  10        1PX         0.41534   0.14619  -0.15437  -0.12563  -0.07326
  11        1PY         0.02952  -0.05969  -0.23370   0.29674  -0.05725
  12        1PZ        -0.00000  -0.00000   0.00000   0.00000  -0.00000
  13 4   C  1S         -0.02150   0.02667  -0.00248  -0.01880  -0.01046
  14        1PX        -0.29725   0.22890  -0.16208  -0.15330   0.08324
  15        1PY        -0.09154  -0.01827  -0.23107   0.24093   0.02686
  16        1PZ        -0.00000   0.00000   0.00000   0.00000   0.00000
  17 5   C  1S         -0.09863  -0.03645  -0.03908  -0.23083  -0.15301
  18        1PX        -0.15336   0.27707   0.07336   0.03543   0.22492
  19        1PY        -0.19304  -0.09390   0.24324   0.15330  -0.04941
  20        1PZ        -0.00000  -0.00000   0.00000  -0.00000  -0.00000
  21 6   C  1S         -0.10125   0.19313   0.11843   0.09432  -0.08967
  22        1PX        -0.22490  -0.12321  -0.01535   0.29501   0.16318
  23        1PY         0.13258   0.18022   0.14729   0.08976   0.39478
  24        1PZ         0.00000  -0.00000  -0.00000  -0.00000   0.00000
  25 7   H  1S          0.12074  -0.13541   0.18527  -0.01488   0.10481
  26 8   H  1S          0.03223  -0.17698   0.15006  -0.24466  -0.02054
  27 9   H  1S         -0.07365   0.20499  -0.06277  -0.11729  -0.15806
  28 10  C  1S         -0.14884   0.03157   0.01106   0.21215  -0.12561
  29        1PX         0.27702   0.20959   0.04812  -0.02349  -0.12892
  30        1PY         0.07478  -0.11226   0.26328   0.16743   0.00728
  31        1PZ        -0.00000  -0.00000  -0.00000  -0.00000   0.00000
  32 11  C  1S          0.14392   0.11820   0.24169   0.01008   0.09063
  33        1PX        -0.21296   0.29127   0.11339   0.17182   0.15106
  34        1PY         0.03207   0.16453  -0.27271  -0.08667   0.06946
  35        1PZ         0.00000  -0.00000  -0.00000  -0.00000  -0.00000
  36 12  H  1S          0.19967   0.13856  -0.14444   0.04221   0.16134
  37 13  H  1S         -0.13363  -0.26663  -0.12487   0.12683   0.07694
  38 14  C  1S          0.12130  -0.22806  -0.09764  -0.11140   0.03256
  39        1PX        -0.02432   0.09636   0.37137  -0.02720   0.18922
  40        1PY        -0.12683  -0.16828   0.03714  -0.21831  -0.19523
  41        1PZ         0.00000  -0.00000  -0.00000  -0.00000  -0.00000
  42 15  C  1S         -0.14631  -0.11940  -0.09929  -0.10271  -0.02892
  43        1PX         0.09333  -0.12505   0.00168   0.30254  -0.11980
  44        1PY        -0.08989   0.16201   0.10261   0.00915  -0.25988
  45        1PZ         0.00000   0.00000   0.00000   0.00000   0.00000
  46 16  H  1S         -0.15709  -0.16730   0.06006   0.07865  -0.08972
  47 17  H  1S         -0.00740   0.18288  -0.16967   0.19102  -0.03717
  48 18  C  1S         -0.19490   0.17146   0.03546  -0.20782   0.02177
  49        1PX        -0.10544  -0.12332  -0.08695   0.00430   0.00567
  50        1PY         0.08629  -0.04027  -0.06209  -0.07416   0.11006
  51        1PZ        -0.00000  -0.00001  -0.00001  -0.00000  -0.00000
  52 19  H  1S          0.13971  -0.05356   0.02462   0.14004  -0.04016
  53 20  H  1S          0.13973  -0.05356   0.02460   0.14002  -0.04013
  54 21  H  1S          0.18610  -0.13099  -0.06728   0.07345   0.06100
                          51        52        53        54
                           V         V         V         V
     Eigenvalues --     0.21074   0.21281   0.22191   0.22662
   1 1   C  1S          0.09935  -0.15693   0.12715   0.08640
   2        1PX        -0.12095  -0.09299   0.19675   0.22681
   3        1PY         0.16247   0.18512   0.10919   0.14671
   4        1PZ         0.00000  -0.00000  -0.00000  -0.00000
   5 2   C  1S          0.06733   0.02121  -0.00915  -0.16338
   6        1PX        -0.04315  -0.32755   0.19761   0.00623
   7        1PY        -0.08736  -0.06680  -0.20979  -0.24862
   8        1PZ        -0.00000   0.00000   0.00000   0.00000
   9 3   C  1S          0.05244   0.25355   0.14134   0.00780
  10        1PX         0.00836   0.05688  -0.07811  -0.33998
  11        1PY         0.02297  -0.16869   0.36205  -0.07955
  12        1PZ        -0.00000  -0.00000  -0.00000   0.00000
  13 4   C  1S         -0.21066   0.15460  -0.16310   0.00717
  14        1PX         0.01650  -0.08756  -0.05460   0.34504
  15        1PY        -0.13589   0.21864   0.34404   0.06263
  16        1PZ        -0.00000   0.00000   0.00000   0.00000
  17 5   C  1S         -0.07280  -0.03758   0.01308   0.16121
  18        1PX         0.32816  -0.28308  -0.08646   0.06710
  19        1PY        -0.00081  -0.07582  -0.26238  -0.23761
  20        1PZ        -0.00000   0.00000  -0.00000   0.00000
  21 6   C  1S          0.04886  -0.17386  -0.11663  -0.09281
  22        1PX         0.06061   0.01930  -0.22379  -0.26479
  23        1PY         0.33606  -0.10966   0.04163   0.04947
  24        1PZ        -0.00000   0.00000   0.00000   0.00000
  25 7   H  1S         -0.14458  -0.04953  -0.15281   0.06668
  26 8   H  1S         -0.05438   0.12724   0.07213   0.12350
  27 9   H  1S         -0.09260  -0.01174  -0.15555  -0.06372
  28 10  C  1S          0.13593   0.06253  -0.00758   0.16317
  29        1PX         0.17494   0.41096  -0.13094  -0.04558
  30        1PY        -0.06066   0.04708  -0.26358   0.24646
  31        1PZ         0.00000  -0.00000   0.00000   0.00000
  32 11  C  1S         -0.11151  -0.04139   0.00443  -0.15728
  33        1PX        -0.34860   0.24278   0.16789  -0.00425
  34        1PY        -0.14192  -0.05150  -0.20236   0.25004
  35        1PZ         0.00000  -0.00000  -0.00000   0.00000
  36 12  H  1S          0.08075   0.04143   0.15295   0.06538
  37 13  H  1S         -0.06449   0.14296  -0.08098  -0.11898
  38 14  C  1S          0.01317  -0.20928  -0.10668   0.08081
  39        1PX        -0.25682  -0.01593   0.18185  -0.22259
  40        1PY         0.36995  -0.01400   0.11365  -0.14845
  41        1PZ         0.00000  -0.00000  -0.00000   0.00000
  42 15  C  1S          0.07818  -0.12639   0.13100  -0.10802
  43        1PX         0.10097   0.08896  -0.22358   0.26498
  44        1PY         0.35675   0.32951   0.01726  -0.03406
  45        1PZ        -0.00000   0.00000  -0.00000   0.00000
  46 16  H  1S          0.11767   0.09259   0.14885  -0.06792
  47 17  H  1S         -0.03171   0.14398  -0.07797   0.12488
  48 18  C  1S          0.00190   0.02818   0.07976  -0.09701
  49        1PX        -0.00286  -0.10276  -0.02216   0.04973
  50        1PY        -0.12760  -0.09643   0.02161  -0.03260
  51        1PZ         0.00000  -0.00001   0.00000   0.00000
  52 19  H  1S          0.02939   0.03801  -0.04170   0.04340
  53 20  H  1S          0.02935   0.03799  -0.04170   0.04340
  54 21  H  1S         -0.08490  -0.07856  -0.02574   0.03008
     Density Matrix:
                           1         2         3         4         5
   1 1   C  1S          1.20895
   2        1PX        -0.05324   0.96347
   3        1PY        -0.03699   0.03396   0.95183
   4        1PZ        -0.00000   0.00000  -0.00000   1.00061
   5 2   C  1S          0.29786   0.46455  -0.15899  -0.00000   1.20833
   6        1PX        -0.45324  -0.54203   0.23770   0.00000   0.00954
   7        1PY         0.17377   0.25159   0.04123   0.00000  -0.06584
   8        1PZ        -0.00000   0.00000   0.00000   0.79186  -0.00000
   9 3   C  1S         -0.01490  -0.03554   0.00813   0.00000   0.28517
  10        1PX         0.01981   0.02774  -0.02120  -0.00000  -0.35007
  11        1PY         0.01897   0.04003  -0.00247  -0.00000  -0.30072
  12        1PZ         0.00000  -0.00000   0.00000  -0.00004  -0.00000
  13 4   C  1S         -0.02533  -0.01011  -0.01549  -0.00000  -0.01769
  14        1PX         0.01540  -0.00446   0.02253   0.00000  -0.00536
  15        1PY         0.00855   0.01521  -0.00892   0.00000   0.03194
  16        1PZ         0.00000  -0.00000  -0.00000  -0.26229  -0.00000
  17 5   C  1S         -0.01138   0.00221  -0.02894  -0.00000  -0.02174
  18        1PX         0.01989  -0.00018   0.04322   0.00000  -0.00109
  19        1PY         0.02218  -0.01901   0.02897   0.00000   0.01487
  20        1PZ        -0.00000  -0.00000  -0.00000  -0.00048   0.00000
  21 6   C  1S          0.27507  -0.08326   0.46652   0.00000  -0.01132
  22        1PX         0.08946   0.08452   0.13821   0.00000  -0.00834
  23        1PY        -0.46565   0.13657  -0.63167  -0.00000   0.02790
  24        1PZ        -0.00000   0.00000  -0.00000   0.52002   0.00000
  25 7   H  1S          0.00192   0.00202   0.00108  -0.00000  -0.01470
  26 8   H  1S          0.56187  -0.61346  -0.50949   0.00000  -0.04822
  27 9   H  1S         -0.04626  -0.06374   0.01894   0.00000   0.56034
  28 10  C  1S          0.02500   0.03735  -0.01096   0.00000  -0.03348
  29        1PX        -0.03164  -0.04445   0.01695  -0.00000   0.03400
  30        1PY         0.00668   0.01411  -0.00291  -0.00000   0.00060
  31        1PZ         0.00000  -0.00000  -0.00000  -0.12655  -0.00000
  32 11  C  1S          0.00269   0.00184   0.00046   0.00000   0.02109
  33        1PX        -0.00387  -0.00162  -0.00221   0.00000  -0.02517
  34        1PY        -0.00473  -0.00127  -0.00372  -0.00000  -0.02346
  35        1PZ         0.00000  -0.00000   0.00000   0.00043  -0.00000
  36 12  H  1S          0.05040  -0.01261   0.07771   0.00000   0.00499
  37 13  H  1S         -0.04526   0.01042  -0.06759  -0.00000   0.04575
  38 14  C  1S         -0.00116  -0.00103  -0.00053  -0.00000   0.00230
  39        1PX         0.00144   0.00059   0.00164   0.00000  -0.00227
  40        1PY         0.00018   0.00137  -0.00069  -0.00000   0.00014
  41        1PZ        -0.00000   0.00000   0.00000   0.13315   0.00000
  42 15  C  1S         -0.00715  -0.01074   0.00232   0.00000   0.02564
  43        1PX         0.00798   0.01051  -0.00373  -0.00000  -0.02896
  44        1PY         0.00572   0.00971  -0.00290   0.00000  -0.02361
  45        1PZ        -0.00000   0.00000  -0.00000  -0.00117   0.00000
  46 16  H  1S         -0.00189  -0.00198  -0.00002   0.00000  -0.01304
  47 17  H  1S          0.00053  -0.00055   0.00119   0.00000   0.00609
  48 18  C  1S          0.00283   0.00462  -0.00144   0.00000  -0.00576
  49        1PX        -0.00569  -0.00869   0.00309   0.00000   0.01189
  50        1PY         0.00134   0.00241  -0.00055   0.00000  -0.00314
  51        1PZ        -0.00000  -0.00000   0.00000   0.00012   0.00000
  52 19  H  1S         -0.00148  -0.00223   0.00075  -0.00017   0.00378
  53 20  H  1S         -0.00148  -0.00223   0.00075   0.00017   0.00378
  54 21  H  1S          0.00059   0.00098  -0.00032   0.00000  -0.00210
                           6         7         8         9        10
   6        1PX         0.92030
   7        1PY        -0.02000   0.98562
   8        1PZ        -0.00000   0.00000   1.00108
   9 3   C  1S          0.37269   0.31348  -0.00000   1.18248
  10        1PX        -0.33626  -0.36878   0.00000   0.00088   0.92809
  11        1PY        -0.37569  -0.20333   0.00000  -0.00854   0.00157
  12        1PZ         0.00000   0.00000   0.49742   0.00000   0.00000
  13 4   C  1S         -0.02712  -0.02570  -0.00000   0.29030  -0.08677
  14        1PX        -0.00161  -0.02075   0.00000   0.08596   0.08205
  15        1PY         0.04293   0.02986  -0.00000  -0.46601   0.13498
  16        1PZ         0.00000  -0.00000   0.00244   0.00000   0.00000
  17 5   C  1S          0.00430  -0.01428   0.00000  -0.01776   0.00632
  18        1PX        -0.01907  -0.00539  -0.00000  -0.03476   0.00968
  19        1PY        -0.00566   0.01006   0.00000   0.01467   0.01287
  20        1PZ         0.00000  -0.00000  -0.32343   0.00000   0.00000
  21 6   C  1S          0.02661  -0.01375   0.00000  -0.02529   0.01750
  22        1PX         0.01181   0.01217  -0.00000  -0.01505   0.00779
  23        1PY        -0.04992   0.01748  -0.00000   0.01082  -0.01616
  24        1PZ        -0.00000   0.00000  -0.00193  -0.00000  -0.00000
  25 7   H  1S         -0.01302  -0.01350  -0.00000  -0.04275  -0.06886
  26 8   H  1S          0.05846  -0.02860   0.00000   0.05379  -0.05820
  27 9   H  1S          0.14944  -0.78397   0.00000  -0.04266   0.05859
  28 10  C  1S         -0.03419  -0.01182   0.00000   0.28637   0.43788
  29        1PX         0.03278   0.03705   0.00000  -0.45639  -0.56468
  30        1PY        -0.02102  -0.01471  -0.00000   0.16428   0.23661
  31        1PZ         0.00000  -0.00000  -0.00191   0.00000   0.00000
  32 11  C  1S          0.02570   0.02369   0.00000  -0.01841   0.00467
  33        1PX        -0.03097  -0.02769   0.00000   0.02638  -0.00301
  34        1PY        -0.02789  -0.02041  -0.00000   0.02573  -0.02073
  35        1PZ        -0.00000   0.00000   0.05750  -0.00000  -0.00000
  36 12  H  1S          0.00046   0.00355  -0.00000   0.04535  -0.01078
  37 13  H  1S         -0.06301   0.02439  -0.00000   0.00446  -0.00509
  38 14  C  1S          0.00315   0.00433  -0.00000  -0.02358  -0.01311
  39        1PX        -0.00160  -0.00159   0.00000   0.01048  -0.00433
  40        1PY        -0.00162  -0.00315   0.00000   0.01358   0.02006
  41        1PZ         0.00000   0.00000  -0.00194  -0.00000  -0.00000
  42 15  C  1S          0.02916   0.01830   0.00000  -0.01770  -0.03092
  43        1PX        -0.02773  -0.02200   0.00000   0.02653   0.02651
  44        1PY        -0.02786  -0.01860  -0.00000   0.02128   0.03569
  45        1PZ         0.00000  -0.00000  -0.12968  -0.00000   0.00000
  46 16  H  1S         -0.01530  -0.01356  -0.00000   0.04572  -0.01359
  47 17  H  1S          0.00734   0.00491   0.00000   0.00527   0.00603
  48 18  C  1S         -0.00757  -0.00577  -0.00000   0.02546   0.03647
  49        1PX         0.01374   0.01133   0.00000  -0.04568  -0.06197
  50        1PY        -0.00431  -0.00254  -0.00000   0.00734   0.01361
  51        1PZ         0.00000   0.00000   0.00784  -0.00000  -0.00000
  52 19  H  1S          0.00427   0.00354  -0.01905  -0.00957  -0.01268
  53 20  H  1S          0.00427   0.00354   0.01905  -0.00957  -0.01268
  54 21  H  1S         -0.00252  -0.00156  -0.00001   0.00414   0.00457
                          11        12        13        14        15
  11        1PY         0.92489
  12        1PZ        -0.00000   0.99745
  13 4   C  1S          0.46558  -0.00000   1.18264
  14        1PX         0.13383  -0.00000  -0.00201   0.92961
  15        1PY        -0.61817  -0.00000   0.00912   0.00093   0.92548
  16        1PZ        -0.00000   0.61602  -0.00000  -0.00000   0.00000
  17 5   C  1S         -0.03163   0.00000   0.28559  -0.43452   0.15558
  18        1PX        -0.05048  -0.00000   0.46024  -0.56705   0.23588
  19        1PY         0.01872  -0.00000  -0.16070   0.23051   0.02825
  20        1PZ         0.00000   0.00095  -0.00000   0.00000  -0.00000
  21 6   C  1S         -0.00258  -0.00000  -0.01480   0.02533  -0.01056
  22        1PX        -0.00900  -0.00000  -0.03004   0.03008  -0.02746
  23        1PY        -0.02094   0.00000  -0.02018   0.03373  -0.00477
  24        1PZ         0.00000  -0.26226   0.00000  -0.00000   0.00000
  25 7   H  1S          0.01634   0.00000   0.04526   0.01057  -0.06782
  26 8   H  1S         -0.05084  -0.00000   0.00457  -0.00503  -0.00112
  27 9   H  1S          0.04092   0.00000   0.04521   0.01425  -0.06726
  28 10  C  1S         -0.15509  -0.00000  -0.01750  -0.00615   0.03146
  29        1PX         0.23293   0.00000   0.03502   0.00987  -0.05072
  30        1PY         0.02641  -0.00000  -0.01495   0.01276   0.01915
  31        1PZ        -0.00000   0.48842  -0.00000  -0.00000   0.00000
  32 11  C  1S         -0.03121  -0.00000   0.28392   0.35146   0.29884
  33        1PX         0.04332  -0.00000  -0.37383  -0.34182  -0.37565
  34        1PY         0.02882  -0.00000  -0.31038  -0.36782  -0.19998
  35        1PZ         0.00000  -0.00059  -0.00000  -0.00000  -0.00000
  36 12  H  1S          0.06808  -0.00000  -0.04288   0.06924  -0.01704
  37 13  H  1S         -0.00064   0.00000   0.05370  -0.07248   0.02656
  38 14  C  1S         -0.00944   0.00000  -0.01456  -0.01970  -0.01854
  39        1PX         0.01470  -0.00000   0.03544   0.02828   0.03978
  40        1PY        -0.00791   0.00000  -0.00815  -0.02150  -0.00260
  41        1PZ        -0.00000  -0.25623  -0.00000  -0.00000  -0.00000
  42 15  C  1S          0.01166  -0.00000  -0.02488  -0.01773   0.00219
  43        1PX        -0.02492   0.00000   0.01483   0.00773  -0.00890
  44        1PY        -0.00525  -0.00000  -0.01130  -0.01667  -0.02056
  45        1PZ         0.00000   0.00237   0.00000   0.00000   0.00000
[...]
 -0.00035647,0.,0.,-0.00008296,-0.00000035,0.00000118,0.02345668,-0.202
 32992,-0.13462396,-0.00000012,-0.03799089,-0.01555082,0.00000001,-0.00
 252521,0.00180185,0.00000002,0.00017065,0.00017880,0.,-0.00011914,0.00
 105347,0.,0.00385435,-0.00349538,0.,-0.00000418,0.00000287,0.,0.239408
 85,-0.13506426,-0.14863964,-0.00000009,0.00364344,0.00739483,0.,0.0012
 5551,-0.00070700,-0.00000002,0.00004540,0.00019476,0.,0.00163633,-0.00
 327744,-0.00000002,-0.02219729,-0.03336396,-0.00000007,-0.00001990,0.0
 0004827,0.,0.15041373,0.17865525,-0.00000012,-0.00000008,-0.04242434,0
 .00000006,0.00000002,0.00532682,0.00000001,-0.00000002,0.00728699,0.,0
 .,0.00014227,0.00000001,-0.00000002,0.00398347,-0.00000005,-0.00000010
 ,0.00606122,0.,0.,0.00011454,0.00000010,0.00000018,0.02396477,-0.01335
 194,0.03282825,0.00000010,-0.04745228,0.05037228,0.00000012,0.00085794
 ,-0.02558970,-0.00000006,-0.00260595,-0.00123389,0.,0.00012935,-0.0000
 7760,0.,-0.00341192,0.00041416,0.00000001,-0.00081670,0.00013867,0.,-0
 .00044090,0.00040885,0.,0.06738316,0.01360634,-0.01712292,-0.00000007,
 0.05111859,-0.30262505,-0.00000063,-0.00718479,-0.03086148,-0.00000008
 ,-0.00198155,-0.00053529,0.,-0.00009986,0.00036620,0.,0.00109535,0.000
 13393,-0.00000002,-0.00043947,-0.00000975,0.,0.00026778,0.00035909,0.,
 -0.05633235,0.35110871,0.00000005,-0.00000009,0.00576244,0.00000012,-0
 .00000063,-0.04231654,-0.00000002,-0.00000006,0.00646941,0.,-0.0000000
 1,0.00386448,0.,0.,-0.00000575,0.00000001,-0.00000002,0.00717073,0.,0.
 ,0.00019080,0.,0.,-0.00205291,-0.00000017,0.00000079,0.02364719,0.0240
 5553,-0.03244799,-0.00000010,-0.10522253,-0.01724537,0.00000006,-0.300
 76917,0.08434992,0.00000050,0.03031970,0.08582286,0.00000023,-0.034438
 73,-0.00455551,0.00000001,0.01007264,0.03418620,0.00000007,-0.04487405
 ,0.04456104,0.00000021,-0.00038798,0.00032239,0.,-0.00043553,-0.000413
 69,0.,0.81485412,0.00018395,-0.00524474,-0.00000003,-0.02454864,0.0062
 0566,0.00000003,0.12956824,-0.11725566,-0.00000020,0.05227844,-0.02684
 117,-0.00000014,-0.00409007,-0.00461604,-0.00000003,0.00107950,0.00395
 776,0.,0.04514067,-0.30385111,-0.00000106,-0.00050005,0.00031521,0.,-0
 .00104736,0.00005088,0.,0.06170965,0.78705655,-0.00000004,0.00000003,0
 .00408855,0.00000009,0.00000003,0.00438902,0.00000056,-0.00000017,-0.0
 7114994,0.00000006,-0.00000022,0.00628273,0.00000006,-0.00000002,0.005
 28862,-0.00000002,-0.00000005,0.00003161,0.00000024,-0.00000102,-0.042
 19084,0.,0.,-0.00007521,0.,0.,-0.00118042,-0.00000038,0.00000213,0.148
 27113,0.02133228,-0.02792419,-0.00000009,-0.03409462,-0.00668050,0.000
 00001,0.06927376,-0.04983265,-0.00000018,-0.20695534,-0.11706176,-0.00
 000013,-0.10480533,-0.02480294,0.00000006,0.00973543,0.03836845,0.0000
 0009,0.00014273,-0.00016169,0.00000002,-0.00005191,0.00006307,0.,0.000
 32498,0.00024446,0.,-0.08434094,-0.01431195,0.00000014,0.84598989,0.00
 531412,-0.00679488,-0.00000002,-0.00676644,-0.00553022,-0.00000002,-0.
 01679215,-0.06546653,-0.00000016,-0.16360334,-0.20907644,-0.00000012,-
 0.01688049,0.00602825,0.00000003,0.00535684,0.00890640,0.,-0.00001376,
 0.00034748,0.,-0.00008986,-0.00003133,0.,-0.00052981,-0.00041296,0.,-0
 .01391651,-0.00764508,0.00000002,-0.05072095,0.75009814,-0.00000001,0.
 00000002,0.00002618,0.00000004,-0.00000002,0.00532353,-0.00000012,-0.0
 0000011,0.00638246,-0.00000023,-0.00000018,-0.07206445,0.00000009,0.00
 000003,0.00423823,0.,-0.00000004,0.00418414,0.,0.,-0.00001377,0.,0.,-0
 .00080072,0.,0.,-0.00039069,0.00000008,0.,-0.00180831,-0.00000095,0.00
 000139,0.14919605,-0.00248538,-0.00138745,0.,0.00012423,-0.00001702,0.
 ,-0.00343455,0.00014076,0.,-0.01394565,0.03199542,0.00000010,-0.045782
 81,0.04665358,0.00000013,0.00153652,-0.02578907,-0.00000006,-0.0001640
 4,0.00004555,0.,0.00017642,-0.00053958,0.,-0.00000240,0.00003985,0.,0.
 00015884,0.00073596,0.,-0.00079123,0.00068971,0.,0.06549083,-0.0020533
 5,-0.00084181,-0.00000002,-0.00004057,0.00038544,0.,0.00092136,0.00030
 356,-0.00000001,0.01356505,-0.01612757,-0.00000007,0.04589456,-0.30430
 421,-0.00000076,-0.00653511,-0.03194868,-0.00000009,0.00004514,-0.0000
 2043,0.,0.00010007,-0.00036555,0.,0.00000157,-0.00011048,0.,-0.0000611
 5,-0.00023032,0.,0.00011304,0.00048569,0.,-0.05154772,0.35290425,0.,-0
 .00000002,0.00717040,0.,0.,-0.00000569,0.,0.,0.00388490,0.00000005,-0.
 00000009,0.00645334,0.00000013,-0.00000076,-0.04235823,0.,-0.00000007,
 0.00577414,0.,0.,0.00018790,0.,0.,-0.00035459,0.,0.,-0.00097992,0.,0.,
 -0.00038076,0.,0.,-0.00119384,-0.00000018,0.00000094,0.02367763,-0.009
 32537,0.01260305,0.00000005,0.00039262,0.00033105,0.,0.00020894,-0.000
 13780,0.,-0.00124301,-0.00203729,0.,-0.03627997,-0.00095480,0.00000004
 ,-0.28495711,0.08310733,0.00000043,0.00000062,0.00001619,0.,0.00037301
 ,0.00003085,0.,-0.00003703,0.00002305,0.,-0.00001111,0.00008651,0.,-0.
 00039054,0.00023677,0.,-0.00011502,-0.00044578,0.,0.33146761,0.0313153
 1,-0.02021190,-0.00000010,-0.00026960,-0.00377266,-0.00000002,-0.00000
 394,0.00010728,0.,-0.00147530,-0.00193351,-0.00000002,-0.02015775,0.00
 565076,0.00000002,0.08354488,-0.06609302,-0.00000014,-0.00001396,-0.00
 001722,0.,0.00032455,-0.00056521,0.,0.00066326,-0.00015202,0.,-0.00009
 888,-0.00002750,0.,-0.00057622,0.00028147,0.,-0.00058621,0.00003611,0.
 ,-0.09266441,0.08669389,0.00000009,-0.00000008,0.00603972,0.,-0.000000
 02,0.00397232,0.,0.,0.00014928,0.,-0.00000002,0.00725720,0.,0.,0.00530
 819,0.00000042,-0.00000013,-0.04234516,0.,0.,0.00005143,0.,0.,-0.00090
 571,0.,0.,-0.00034679,0.,0.,-0.00079449,0.,0.,-0.00005923,0.,0.,-0.002
 04681,-0.00000051,0.00000024,0.02393486,-0.01281601,0.01630209,0.00000
 006,0.02103764,0.00520627,0.,-0.04649608,0.01486690,0.00000007,-0.1175
 8154,-0.04386366,0.00000006,0.02388188,0.00033393,-0.00000002,-0.00744
 838,-0.02064279,-0.00000004,-0.00245899,-0.00182681,0.,0.00009759,-0.0
 0001203,0.,-0.00003715,-0.00000064,0.,0.05782613,-0.02038118,-0.000000
 21,-0.43209302,0.16928513,0.00000082,0.00002959,-0.00013881,0.,-0.0000
 6903,-0.00003360,0.,0.85558589,0.01619153,-0.02055580,-0.00000007,-0.0
 2738827,-0.00657663,0.,0.05339994,-0.02234952,-0.00000010,0.02936953,0
 .04981325,0.00000006,-0.03235960,-0.00544985,0.00000002,0.00819505,0.0
 2558748,0.00000005,-0.00117618,-0.00100786,0.,0.00002016,0.00009584,0.
 ,0.00008170,-0.00000321,0.,-0.09748797,-0.08423099,-0.00000003,0.06920
 677,-0.14484326,-0.00000029,0.00013520,-0.00017210,0.,-0.00017224,-0.0
 0016658,0.,-0.03399528,0.73747122,0.00000008,-0.00000010,0.00017623,-0
 .00000013,-0.00000003,0.00005502,0.00000028,-0.00000009,-0.00325644,0.
 00000029,0.00000021,0.00690307,-0.00000014,-0.00000003,0.00396664,0.00
 000004,0.00000012,0.00008562,0.,-0.00000002,0.00677792,0.,0.,-0.000016
 28,0.,0.,-0.00007777,-0.00000050,-0.00000023,0.00790558,0.00000049,-0.
 00000043,-0.06654313,0.,0.,-0.00009565,0.,0.,-0.00043994,-0.00000108,0
 .00000103,0.14844550,-0.00733054,0.00790037,0.00000003,0.00970292,0.00
 541895,0.00000002,-0.10069057,-0.01209303,0.00000002,-0.01903918,-0.01
 434646,-0.00000006,0.00942734,0.00125144,0.00000002,-0.00262094,-0.009
 36541,-0.00000002,0.00115555,-0.00724915,0.00000014,-0.00017417,0.0000
 0018,0.,0.00002289,0.00011233,0.,-0.30389091,-0.22536998,-0.00000059,-
 0.00024509,0.05320664,0.00000007,0.00000996,0.00004473,0.,0.00000870,0
 .00005658,0.,-0.09805145,0.08935560,0.00000017,0.87307484,-0.02073358,
 0.02579320,0.00000008,0.03809661,0.00871001,-0.00000001,-0.08479123,0.
 03393015,0.00000021,-0.05417812,-0.04839341,-0.00000005,0.03417792,0.0
 0422439,-0.00000003,-0.00972299,-0.03055125,-0.00000006,-0.02624840,-0
 .03184581,-0.00000009,0.00016521,-0.00009609,0.,-0.00005368,-0.0001362
 7,0.,-0.12858130,-0.25149482,-0.00000054,0.13104392,-0.02688312,-0.000
 00024,-0.00010278,-0.00002438,0.,-0.00000837,0.00009458,0.,-0.00648990
 ,-0.33430597,-0.00000032,0.03421182,0.78034124,-0.00000005,0.00000002,
 0.00021498,0.00000008,0.00000002,0.00405212,-0.00000022,0.00000004,0.0
 0505388,-0.00000002,-0.00000010,-0.00389483,0.00000003,0.00000002,0.00
 014094,0.00000001,-0.00000006,0.00021110,-0.00000010,-0.00000016,0.006
 28292,0.,0.,-0.00044839,0.,-0.00000001,-0.00009477,-0.00000018,-0.0000
 0034,-0.06796125,0.00000029,-0.00000003,0.00681623,0.,0.,-0.00007759,-
 0.00000001,0.,-0.00002815,-0.00000004,-0.00000064,-0.07352251,0.000002
 04,0.00000064,0.17787077,-0.00004653,0.00009572,0.,0.00034066,-0.00052
 341,0.,-0.00262898,-0.00124925,0.,0.00078738,-0.02560823,-0.00000005,-
 0.00038431,-0.00101707,0.,0.00001003,-0.00005665,0.,-0.00000930,0.0000
 0744,0.,-0.00000029,0.00002084,0.,-0.00011847,-0.00008121,0.,0.0001386
 7,-0.00004639,0.,-0.04727961,0.04995645,0.00000012,-0.00077870,0.00013
 604,0.,-0.00000288,0.00000016,0.,-0.01331523,0.03286603,0.00000009,-0.
 00339996,0.00031146,0.,0.06721041,-0.00001783,0.00001764,0.,0.00026070
 ,-0.00041154,0.,-0.00202617,-0.00051032,0.,-0.00720446,-0.03082181,-0.
 00000007,-0.00044148,0.00005904,0.,0.00020126,-0.00014625,0.,0.0000415
 7,-0.00010881,0.,-0.00001305,-0.00001856,0.,-0.00008140,-0.00006946,0.
 ,-0.00003933,0.00037492,0.,0.05068379,-0.30247794,-0.00000060,-0.00042
 737,-0.00000552,0.,-0.00002447,0.00004827,0.,0.01369370,-0.01726657,-0
 .00000006,0.00102387,0.00011511,-0.00000002,-0.05596981,0.35101222,0.,
 0.,-0.00007595,0.,0.,-0.00038934,0.,0.,0.00369834,-0.00000002,-0.00000
 005,0.00650077,0.,0.,-0.00114090,0.,0.,-0.00010561,0.,0.,-0.00093017,0
 .,0.,0.00005459,0.,0.,0.00019073,0.00000002,0.,-0.00001915,0.00000012,
 -0.00000059,-0.04231536,0.,0.,0.00018671,0.,0.,0.00010902,0.00000006,-
 0.00000008,0.00569439,0.00000002,-0.00000003,0.00737241,-0.00000017,0.
 00000075,0.02368659,0.00011005,0.00000348,0.,-0.00008309,-0.00009200,0
 .,0.00023584,0.00015830,0.,-0.00245672,0.00182582,0.00000002,-0.000420
 54,-0.00049808,0.,-0.00015290,0.00017818,0.,0.00017898,0.00009988,-0.0
 0000001,-0.00002658,-0.00002646,0.,0.00000047,-0.00001131,0.,-0.000318
 52,0.00094184,0.,-0.03805574,-0.01553513,0.00000001,-0.00000581,0.0000
 0447,0.,-0.00003413,-0.00002126,0.,-0.20222140,-0.13421277,0.00000003,
 0.00424726,-0.00332899,0.00000001,-0.00044857,0.00027448,0.,0.23947323
 ,0.00000100,0.00007180,0.,0.00002731,-0.00003560,0.,0.00010542,0.00014
 944,0.,0.00129261,-0.00064384,-0.00000001,0.00028204,0.00030396,0.,0.0
 0004102,-0.00007024,0.,-0.00052410,-0.00035094,0.,-0.00002710,-0.00002
 226,0.,0.00001995,-0.00001727,0.,0.00151254,-0.00314043,-0.00000002,0.
 00350677,0.00733356,0.,-0.00002035,0.00004969,0.,-0.00000274,0.0000272
 1,0.,-0.13490607,-0.14780400,0.,-0.02202170,-0.03383475,-0.00000003,0.
 00041686,0.00036162,0.,0.14978733,0.17884352,0.,0.,-0.00001247,0.,0.,-
 0.00077453,0.00000002,0.,0.00012909,0.00000003,0.,0.00737478,0.,0.,-0.
 00006043,0.,0.,-0.00046311,0.,0.,-0.00033914,0.,0.,0.00011551,0.,0.,0.
 00005293,-0.00000002,-0.00000002,0.00368919,0.00000003,0.00000003,0.00
 535095,0.,0.,0.00011357,0.,0.,0.00003099,0.,0.00000001,-0.04256289,0.0
 0000007,-0.00000010,0.00657834,0.,0.,-0.00212405,-0.00000011,0.0000002
 1,0.02393906,-0.00015402,0.00003544,0.,-0.00039090,0.00013007,0.,-0.00
 049165,-0.00212974,-0.00000003,-0.00100492,-0.00013951,0.00000003,0.00
 058436,0.00008928,-0.00000002,-0.00016521,-0.00027796,0.,-0.00042756,-
 0.00033257,-0.00000006,-0.00002003,0.00001414,0.,0.00000733,0.00000859
 ,0.,-0.05783502,-0.00492779,-0.00000023,0.00187438,0.00022805,0.000000
 07,-0.00001287,-0.00000330,0.,0.00000022,0.00000243,0.,-0.02147738,0.0
 2670406,0.00000017,-0.29003247,0.07314307,-0.00000136,0.00003641,0.000
 01144,-0.00000002,0.00014275,0.00034330,-0.00000010,0.59308329,0.00008
 328,-0.00026577,0.00000002,-0.00079214,0.00026625,0.,-0.00120164,-0.00
 195261,-0.00000024,0.00019261,0.00026249,0.,-0.00020774,-0.00000696,0.
 00000001,0.00005257,0.00026822,0.,-0.00103466,0.00020808,0.00000014,-0
 .00003113,0.00002550,0.,0.00002374,0.00004613,0.,-0.01936411,0.0066009
 9,-0.00000036,-0.00028378,-0.00408663,0.00000008,-0.00002592,-0.000020
 37,0.,0.00002791,-0.00000372,0.,0.03962754,-0.02692878,0.00000049,0.07
 772012,-0.09130072,0.00000051,0.00070526,-0.00014035,-0.00000004,0.000
 43879,-0.00103523,-0.00000010,-0.02662744,0.54475826,0.00000002,0.0000
 0005,-0.00050008,-0.00000001,-0.00000004,-0.00003404,0.00000040,-0.000
 00012,0.00771140,-0.00000023,0.00000001,0.00008402,0.00000013,-0.00000
 002,-0.00076252,-0.00000007,-0.00000003,-0.00000456,-0.00000009,0.0000
 0009,-0.00225190,0.,0.,0.00002200,0.,0.00000002,0.00007920,-0.00000083
 ,-0.00000057,0.00610061,0.00000032,-0.00000013,0.00371905,0.,0.,0.0000
 3880,0.00000002,0.,0.00011026,-0.00000005,0.00000054,0.00559071,0.0000
 0164,-0.00000029,-0.07031454,0.00000002,0.,-0.00035955,-0.00000010,0.0
 0000004,-0.00098214,-0.00000461,0.00000130,0.49452446,-0.00004280,0.00
 004194,0.00008329,-0.00001030,0.00006629,-0.00002386,-0.00040442,-0.00
 021922,-0.00120413,-0.00009047,-0.00014203,-0.00000378,0.00005688,0.00
 000504,0.00010261,-0.00002748,-0.00003916,-0.00000130,0.00001588,0.000
 10963,0.00032097,-0.00000621,0.00000337,0.00000019,0.00000044,0.000012
 27,-0.00000796,-0.00142664,0.00128067,0.00022020,0.00018965,-0.0001323
 5,-0.00043213,-0.00000582,-0.00000128,-0.00000395,0.00000737,-0.000001
 95,-0.00001521,-0.00041952,0.00031374,0.00009854,-0.03064044,-0.005527
 85,0.02596457,0.00002646,0.00001155,0.00005704,-0.00005224,0.00013300,
 0.00018859,-0.09142313,-0.03944787,0.09328610,0.11494664,0.00005174,-0
 .00008209,-0.00002404,-0.00003326,-0.00003230,0.00000472,0.00009551,0.
 00012700,0.00031216,0.00027176,0.00013671,-0.00001037,-0.00016607,-0.0
 0001038,-0.00000499,0.00006586,0.00008893,0.00000092,0.00001581,-0.000
 06571,-0.00000553,0.00000190,-0.00000328,0.00000052,-0.00000172,-0.000
 01166,0.00000899,0.00070112,-0.00020586,0.00000108,-0.00046553,-0.0000
 1834,0.00004640,0.00000571,0.00000477,0.00000090,-0.00001152,0.0000033
 2,0.00000181,0.00103755,-0.00069640,0.00002825,0.00310305,0.00670191,-
 0.00522574,-0.00000045,-0.00000583,-0.00002727,0.00001938,-0.00013261,
 -0.00000173,-0.03955195,-0.07046245,0.06889539,0.04571677,0.07735417,-
 0.00002149,0.00002102,0.00000673,-0.00000274,0.00001304,0.00000383,0.0
 0001849,-0.00008375,-0.00010614,-0.00009963,-0.00001166,-0.00000725,0.
 00005595,-0.00001286,0.00000244,-0.00003072,-0.00003076,-0.00000171,-0
 .00002897,0.00000595,0.00005134,0.00000343,0.00000599,0.00000087,-0.00
 000103,0.00000914,0.00000180,-0.00048536,-0.00013212,-0.00025542,0.000
 12143,0.00003185,-0.00001506,0.00000030,-0.00000549,0.00000164,0.00000
 841,-0.00000453,0.00000066,-0.00010151,0.00008019,0.00013354,0.0116454
 7,-0.00016720,-0.00110990,-0.00001727,-0.00000666,0.00000607,0.0000849
 4,-0.00012447,-0.00002133,0.09307965,0.06881585,-0.20048709,-0.1148781
 9,-0.08285674,0.23618438,-0.00004276,0.00004195,-0.00008331,-0.0000102
 9,0.00006624,0.00002384,-0.00040411,-0.00021910,0.00120436,-0.00009047
 ,-0.00014198,0.00000378,0.00005687,0.00000502,-0.00010264,-0.00002750,
 -0.00003914,0.00000130,0.00001585,0.00010964,-0.00032107,-0.00000620,0
 .00000337,-0.00000019,0.00000043,0.00001228,0.00000796,-0.00142595,0.0
 0128013,-0.00022006,0.00018958,-0.00013226,0.00043234,-0.00000582,-0.0
 0000129,0.00000395,0.00000738,-0.00000196,0.00001521,-0.00041926,0.000
 31341,-0.00009829,-0.03063467,-0.00551614,-0.02597104,0.00002644,0.000
 01156,-0.00005706,-0.00005208,0.00013261,-0.00018854,-0.09139184,-0.03
 939712,-0.09328531,0.00687852,0.00208429,0.00724146,0.11490703,0.00005
 176,-0.00008212,0.00002404,-0.00003333,-0.00003231,-0.00000472,0.00009
 560,0.00012683,-0.00031220,0.00027181,0.00013677,0.00001036,-0.0001660
 9,-0.00001039,0.00000501,0.00006587,0.00008896,-0.00000092,0.00001579,
 -0.00006570,0.00000553,0.00000190,-0.00000327,-0.00000052,-0.00000172,
 -0.00001165,-0.00000900,0.00070035,-0.00020581,-0.00000080,-0.00046565
 ,-0.00001836,-0.00004652,0.00000571,0.00000477,-0.00000090,-0.00001152
 ,0.00000332,-0.00000181,0.00103709,-0.00069649,-0.00002860,0.00310726,
 0.00669982,0.00522919,-0.00000046,-0.00000584,0.00002730,0.00001932,-0
 .00013228,0.00000173,-0.03950026,-0.07040213,-0.06884506,0.00208641,0.
 00620627,0.00615914,0.04565462,0.07728165,0.00002147,-0.00002101,0.000
 00672,0.00000279,-0.00001302,0.00000383,-0.00001876,0.00008385,-0.0001
 0610,0.00009969,0.00001160,-0.00000725,-0.00005598,0.00001287,0.000002
 43,0.00003075,0.00003075,-0.00000171,0.00002898,-0.00000597,0.00005131
 ,-0.00000343,-0.00000599,0.00000087,0.00000103,-0.00000915,0.00000180,
 0.00048593,0.00013245,-0.00025554,-0.00012152,-0.00003185,-0.00001504,
 -0.00000030,0.00000549,0.00000164,-0.00000842,0.00000454,0.00000066,0.
 00010195,-0.00008064,0.00013350,-0.01165024,0.00016995,-0.00111348,0.0
 0001727,0.00000665,0.00000607,-0.00008479,0.00012425,-0.00002131,-0.09
 307695,-0.06876612,-0.20057546,-0.00723419,-0.00614227,-0.03220197,0.1
 1487699,0.08279562,0.23629196,-0.00000893,0.00002381,0.,0.00007370,-0.
 00002154,0.,0.00005493,0.00011141,-0.00000012,0.00005093,-0.00003601,0
 .,0.00001664,-0.00001428,0.00000001,-0.00001224,-0.00002779,0.,-0.0011
 4623,-0.00060289,0.00000011,0.00000273,-0.00000187,0.,-0.00001709,0.00
 000389,0.,-0.00204900,0.00093733,0.00000017,0.00004952,0.00083969,-0.0
 0000017,0.00000348,0.00000225,0.,-0.00000136,-0.00000199,0.,-0.0035536
 2,0.00063931,-0.00000002,-0.01089874,0.03413338,0.00000601,-0.00016381
 ,0.00003128,0.,-0.00006030,-0.00009963,0.00000004,-0.04090186,0.009541
 69,0.00000264,0.00242778,-0.01293994,0.00340735,0.00242899,-0.01293445
 ,-0.00341222,0.05370439,0.00000226,-0.00000638,0.,-0.00005120,0.000028
 20,0.,-0.00007487,-0.00007604,0.00000011,-0.00004794,0.00000858,0.,0.0
 0001672,-0.00000491,-0.00000001,-0.00001483,0.00000737,0.,0.00025974,-
 0.00003881,-0.00000008,-0.00000106,0.00000496,0.,-0.00000320,0.0000144
 5,0.,0.00034531,0.00042757,-0.00000007,0.00005788,-0.00019551,0.000000
 06,-0.00000391,-0.00000288,0.,0.00000823,-0.00000306,0.,0.00090077,0.0
 0008590,-0.00000020,0.01393299,-0.01774366,-0.00000332,0.00003667,-0.0
 0000020,0.,-0.00002538,0.00007890,-0.00000002,0.01278056,-0.28583052,-
 0.00005119,-0.00426891,-0.01889620,0.00829411,-0.00426610,-0.01888207,
 -0.00830203,-0.01958368,0.34102430,0.00000001,-0.00000003,0.00000225,-
 0.00000003,0.,-0.00002119,0.,0.,-0.00001250,0.00000007,0.00000003,0.00
 001253,-0.00000004,0.,-0.00000356,0.00000001,0.00000003,-0.00000089,0.
 00000018,0.00000004,0.00006107,0.,0.,0.00000410,0.,0.,0.00001375,0.000
 00027,0.00000008,0.00002411,-0.00000013,0.00000003,-0.00001735,0.,0.,0
 .00000216,0.,0.,0.00000151,-0.00000005,-0.00000006,0.00064709,0.000001
 19,-0.00000191,0.00397197,0.,0.,-0.00004595,0.,0.,-0.00001314,0.000003
 45,-0.00005155,-0.04170856,0.00348265,0.02499754,-0.00218735,-0.003483
 76,-0.02500687,-0.00220288,-0.00000383,0.00006264,0.04147275\\-0.00000
 085,-0.00010441,-0.00000003,0.00012480,-0.00004032,-0.00000001,-0.0000
 6086,-0.00000464,0.00000002,-0.00005015,-0.00006355,0.,0.00007241,0.00
 008800,-0.00000003,-0.00004335,0.00009275,0.00000003,-0.00004049,0.000
 05305,0.,-0.00000648,-0.00001951,0.00000001,-0.00000177,0.00003303,0.0
 0000001,0.00019182,0.00002865,0.00000005,0.00006733,0.00005767,0.00000
 001,0.00001105,-0.00003226,0.00000001,-0.00001344,0.00001417,0.,0.0000
 1292,0.00009331,-0.00000008,0.00006491,-0.00028658,0.,-0.00001344,-0.0
 0003399,0.,0.00000382,-0.00000761,0.,-0.00011601,0.00007188,-0.0000000
 3,-0.00007789,-0.00002570,0.00006472,-0.00007790,-0.00002571,-0.000064
 67,-0.00004642,0.00011178,-0.00000002\\\@


 ON INDUCTION, OR "WHY DO YOU BELIEVE THE SUN WILL RISE TOMORROW?":

 ... THE FARMER WHO HAS FED THE CHICKEN EVERY DAY THROUGHOUT ITS
 LIFE AT LAST WRINGS ITS NECK INSTEAD, SHOWING THAT MORE REFINED VIEWS
 AS TO THE UNIFORMITY OF NATURE WOULD HAVE BEEN USEFUL TO THE CHICKEN.

                               -- BERTRAND RUSSELL
 Job cpu time:       0 days  0 hours  0 minutes  0.6 seconds.
 Elapsed time:       0 days  0 hours  0 minutes  0.6 seconds.
 File lengths (MBytes):  RWF=     29 Int=      0 D2E=      0 Chk=      2 Scr=      1
 Normal termination of Gaussian 16 at Thu Jun 12 22:11:37 2025.
