 Entering Gaussian System, Link 0=g16
 Input=/home/gaussian/Documents/Summer_Internship/Acid_Base_adduct/Acid/BH3/BH3_sp.com
 Output=/home/gaussian/Documents/Summer_Internship/Acid_Base_adduct/Acid/BH3/BH3_sp.log
 Initial command:
 /usr/local/g16/l1.exe "/home/gaussian/tmp/Gau-29767.inp" -scrdir="/home/gaussian/tmp/"
 Entering Link 1 = /usr/local/g16/l1.exe PID=     29770.
  
 Copyright (c) 1988-2017, Gaussian, Inc.  All Rights Reserved.
  
 This is part of the Gaussian(R) 16 program.  It is based on
 the Gaussian(R) 09 system (copyright 2009, Gaussian, Inc.),
 the Gaussian(R) 03 system (copyright 2003, Gaussian, Inc.),
 the Gaussian(R) 98 system (copyright 1998, Gaussian, Inc.),
 the Gaussian(R) 94 system (copyright 1995, Gaussian, Inc.),
 the Gaussian 92(TM) system (copyright 1992, Gaussian, Inc.),
 the Gaussian 90(TM) system (copyright 1990, Gaussian, Inc.),
 the Gaussian 88(TM) system (copyright 1988, Gaussian, Inc.),
 the Gaussian 86(TM) system (copyright 1986, Carnegie Mellon
 University), and the Gaussian 82(TM) system (copyright 1983,
 Carnegie Mellon University). Gaussian is a federally registered
 trademark of Gaussian, Inc.
  
 This software contains proprietary and confidential information,
 including trade secrets, belonging to Gaussian, Inc.
  
 This software is provided under written license and may be
 used, copied, transmitted, or stored only in accord with that
 written license.
  
 The following legend is applicable only to US Government
 contracts under FAR:
  
                    RESTRICTED RIGHTS LEGEND
  
 Use, reproduction and disclosure by the US Government is
 subject to restrictions as set forth in subparagraphs (a)
 and (c) of the Commercial Computer Software - Restricted
 Rights clause in FAR 52.227-19.
  
 Gaussian, Inc.
 340 Quinnipiac St., Bldg. 40, Wallingford CT 06492
  
  
 ---------------------------------------------------------------
 Warning -- This program may not be used in any manner that
 competes with the business of Gaussian, Inc. or will provide
 assistance to any competitor of Gaussian, Inc.  The licensee
 of this program is prohibited from giving any competitor of
 Gaussian, Inc. access to this program.  By using this program,
 the user acknowledges that Gaussian, Inc. is engaged in the
 business of creating and licensing software in the field of
 computational chemistry and represents and warrants to the
 licensee that it is not a competitor of Gaussian, Inc. and that
 it will not use this program in any manner prohibited above.
 ---------------------------------------------------------------
  

 Cite this work as:
 Gaussian 16, Revision B.01,
 M. J. Frisch, G. W. Trucks, H. B. Schlegel, G. E. Scuseria, 
 M. A. Robb, J. R. Cheeseman, G. Scalmani, V. Barone, 
 G. A. Petersson, H. Nakatsuji, X. Li, M. Caricato, A. V. Marenich, 
 J. Bloino, B. G. Janesko, R. Gomperts, B. Mennucci, H. P. Hratchian, 
 J. V. Ortiz, A. F. Izmaylov, J. L. Sonnenberg, D. Williams-Young, 
 F. Ding, F. Lipparini, F. Egidi, J. Goings, B. Peng, A. Petrone, 
 T. Henderson, D. Ranasinghe, V. G. Zakrzewski, J. Gao, N. Rega, 
 G. Zheng, W. Liang, M. Hada, M. Ehara, K. Toyota, R. Fukuda, 
 J. Hasegawa, M. Ishida, T. Nakajima, Y. Honda, O. Kitao, H. Nakai, 
 T. Vreven, K. Throssell, J. A. Montgomery, Jr., J. E. Peralta, 
 F. Ogliaro, M. J. Bearpark, J. J. Heyd, E. N. Brothers, K. N. Kudin, 
 V. N. Staroverov, T. A. Keith, R. Kobayashi, J. Normand, 
 K. Raghavachari, A. P. Rendell, J. C. Burant, S. S. Iyengar, 
 J. Tomasi, M. Cossi, J. M. Millam, M. Klene, C. Adamo, R. Cammi, 
 J. W. Ochterski, R. L. Martin, K. Morokuma, O. Farkas, 
 J. B. Foresman, and D. J. Fox, Gaussian, Inc., Wallingford CT, 2016.
 
 ******************************************
 Gaussian 16:  EM64L-G16RevB.01 20-Dec-2017
                13-Jun-2025 
 ******************************************
 %chk=BH3_sp.chk
 -------------------------------------
 # hf/3-21g pop=full geom=connectivity
 -------------------------------------
 1/38=1,57=2,172=1/1;
 2/12=2,17=6,18=5,40=1/2;
 3/5=5,11=9,25=1,30=1/1,2,3;
 4//1;
 5/5=2,38=5/2;
 6/7=3,28=1/1;
 99/5=1,9=1/99;
 -------------------
 Title Card Required
 -------------------
 Symbolic Z-matrix:
 Charge =  0 Multiplicity = 1
 B                     0.        0.        0. 
 H                     0.        1.1882    0. 
 H                    -1.02901  -0.5941    0. 
 H                     1.02901  -0.5941    0. 
 
                          Input orientation:                          
 ---------------------------------------------------------------------
 Center     Atomic      Atomic             Coordinates (Angstroms)
 Number     Number       Type             X           Y           Z
 ---------------------------------------------------------------------
      1          5           0        0.000000    0.000000    0.000000
      2          1           0        0.000000    1.188199    0.000000
      3          1           0       -1.029010   -0.594099    0.000000
      4          1           0        1.029010   -0.594099    0.000000
 ---------------------------------------------------------------------
                    Distance matrix (angstroms):
                    1          2          3          4
     1  B    0.000000
     2  H    1.188199   0.000000
     3  H    1.188198   2.058020   0.000000
     4  H    1.188198   2.058020   2.058020   0.000000
 Stoichiometry    BH3
 Framework group  D3H[O(B),3C2(H)]
 Deg. of freedom     1
 Full point group                 D3H     NOp  12
 Largest Abelian subgroup         C2V     NOp   4
 Largest concise Abelian subgroup C2      NOp   2
                         Standard orientation:                         
 ---------------------------------------------------------------------
 Center     Atomic      Atomic             Coordinates (Angstroms)
 Number     Number       Type             X           Y           Z
 ---------------------------------------------------------------------
      1          5           0        0.000000   -0.000000    0.000000
      2          1           0        0.000000    1.188199    0.000000
      3          1           0       -1.029010   -0.594099    0.000000
      4          1           0        1.029010   -0.594099    0.000000
 ---------------------------------------------------------------------
 Rotational constants (GHZ):         236.7895454         236.7895454         118.3947727
 Standard basis: 3-21G (6D, 7F)
 There are     9 symmetry adapted cartesian basis functions of A1  symmetry.
 There are     0 symmetry adapted cartesian basis functions of A2  symmetry.
 There are     4 symmetry adapted cartesian basis functions of B1  symmetry.
 There are     2 symmetry adapted cartesian basis functions of B2  symmetry.
 There are     9 symmetry adapted basis functions of A1  symmetry.
 There are     0 symmetry adapted basis functions of A2  symmetry.
 There are     4 symmetry adapted basis functions of B1  symmetry.
 There are     2 symmetry adapted basis functions of B2  symmetry.
    15 basis functions,    24 primitive gaussians,    15 cartesian basis functions
     4 alpha electrons        4 beta electrons
       nuclear repulsion energy         7.4517996655 Hartrees.
 NAtoms=    4 NActive=    4 NUniq=    2 SFac= 4.00D+00 NAtFMM=   60 NAOKFM=F Big=F
 Integral buffers will be    131072 words long.
 Raffenetti 1 integral format.
 Two-electron integral symmetry is turned on.
 One-electron integrals computed using PRISM.
 NBasis=    15 RedAO= T EigKep=  3.66D-02  NBF=     9     0     4     2
 NBsUse=    15 1.00D-06 EigRej= -1.00D+00 NBFU=     9     0     4     2
 ExpMin= 1.24D-01 ExpMax= 1.16D+02 ExpMxC= 1.16D+02 IAcc=3 IRadAn=         5 AccDes= 0.00D+00
 Harris functional with IExCor=  205 and IRadAn=       5 diagonalized for initial guess.
 HarFok:  IExCor=  205 AccDes= 0.00D+00 IRadAn=         5 IDoV= 1 UseB2=F ITyADJ=14
 ICtDFT=  3500011 ScaDFX=  1.000000  1.000000  1.000000  1.000000
 FoFCou: FMM=F IPFlag=           0 FMFlag=      100000 FMFlg1=           0
         NFxFlg=           0 DoJE=T BraDBF=F KetDBF=T FulRan=T
         wScrn=  0.000000 ICntrl=       500 IOpCl=  0 I1Cent=   200000004 NGrid=           0
         NMat0=    1 NMatS0=      1 NMatT0=    0 NMatD0=    1 NMtDS0=    0 NMtDT0=    0
 Petite list used in FoFCou.
 Initial guess orbital symmetries:
       Occupied  (A1') (A1') (E') (E')
       Virtual   (A2") (E') (E') (A1') (E') (E') (A2") (A1') (A1')
                 (E') (E')
 The electronic state of the initial guess is 1-A1'.
 Keep R1 ints in memory in symmetry-blocked form, NReq=811650.
 Requested convergence on RMS density matrix=1.00D-08 within 128 cycles.
 Requested convergence on MAX density matrix=1.00D-06.
 Requested convergence on             energy=1.00D-06.
 No special actions if energy rises.
 SCF Done:  E(RHF) =  -26.2373012792     A.U. after    8 cycles
            NFock=  8  Conv=0.38D-08     -V/T= 2.0036

 **********************************************************************

            Population analysis using the SCF Density.

 **********************************************************************

 Orbital symmetries:
       Occupied  (A1') (A1') (E') (E')
       Virtual   (A2") (E') (E') (A1') (E') (E') (A2") (A1') (A1')
                 (E') (E')
 The electronic state is 1-A1'.
 Alpha  occ. eigenvalues --   -7.57468  -0.70668  -0.49952  -0.49952
 Alpha virt. eigenvalues --    0.07707   0.32325   0.32325   0.34818   0.59852
 Alpha virt. eigenvalues --    0.59852   0.68503   0.77759   1.36671   1.42894
 Alpha virt. eigenvalues --    1.42894
     Molecular Orbital Coefficients:
                           1         2         3         4         5
                       (A1')--O  (A1')--O   (E')--O   (E')--O  (A2")--V
     Eigenvalues --    -7.57468  -0.70668  -0.49952  -0.49952   0.07707
   1 1   B  1S          0.98766  -0.19445  -0.00000   0.00000   0.00000
   2        2S          0.08629   0.24967   0.00000   0.00000   0.00000
   3        2PX         0.00000   0.00000   0.00000   0.37532   0.00000
   4        2PY        -0.00000   0.00000   0.37532   0.00000   0.00000
   5        2PZ         0.00000   0.00000   0.00000   0.00000   0.32277
   6        3S         -0.04925   0.37837   0.00000   0.00000   0.00000
   7        3PX         0.00000   0.00000   0.00000   0.17501   0.00000
   8        3PY        -0.00000  -0.00000   0.17501   0.00000   0.00000
   9        3PZ         0.00000   0.00000   0.00000   0.00000   0.78512
  10 2   H  1S         -0.00444   0.15556   0.25304   0.00000   0.00000
  11        2S          0.01179   0.12474   0.32799   0.00000   0.00000
  12 3   H  1S         -0.00444   0.15556  -0.12652  -0.21914   0.00000
  13        2S          0.01179   0.12474  -0.16400  -0.28405   0.00000
  14 4   H  1S         -0.00444   0.15556  -0.12652   0.21914   0.00000
  15        2S          0.01179   0.12474  -0.16400   0.28405   0.00000
                           6         7         8         9        10
                        (E')--V   (E')--V  (A1')--V   (E')--V   (E')--V
     Eigenvalues --     0.32325   0.32325   0.34818   0.59852   0.59852
   1 1   B  1S          0.00000   0.00000  -0.15385   0.00000  -0.00000
   2        2S         -0.00000   0.00000   0.09568   0.00000  -0.00000
   3        2PX         0.00000   0.13239   0.00000   1.03468   0.00000
   4        2PY         0.13239   0.00000   0.00000   0.00000   1.03468
   5        2PZ         0.00000   0.00000   0.00000   0.00000   0.00000
   6        3S         -0.00000   0.00000   2.86917   0.00000   0.00000
   7        3PX         0.00000   2.06768   0.00000  -0.76543   0.00000
   8        3PY         2.06768   0.00000   0.00000   0.00000  -0.76543
   9        3PZ         0.00000   0.00000   0.00000   0.00000   0.00000
  10 2   H  1S         -0.08835   0.00000  -0.05869   0.00000   0.17135
  11        2S         -1.87045   0.00000  -1.35221   0.00000  -0.33610
  12 3   H  1S          0.04418   0.07651  -0.05869  -0.14840  -0.08568
  13        2S          0.93523   1.61986  -1.35221   0.29107   0.16805
  14 4   H  1S          0.04418  -0.07651  -0.05869   0.14840  -0.08568
  15        2S          0.93523  -1.61986  -1.35221  -0.29107   0.16805
                          11        12        13        14        15
                       (A2")--V  (A1')--V  (A1')--V   (E')--V   (E')--V
     Eigenvalues --     0.68503   0.77759   1.36671   1.42894   1.42894
   1 1   B  1S          0.00000   0.02377   0.08791   0.00000  -0.00000
   2        2S          0.00000  -1.44079  -0.88475   0.00000   0.00000
   3        2PX         0.00000   0.00000   0.00000  -0.54916   0.00000
   4        2PY         0.00000  -0.00000   0.00000   0.00000   0.54916
   5        2PZ         1.15429   0.00000   0.00000   0.00000   0.00000
   6        3S          0.00000   1.88682   2.31544   0.00000  -0.00000
   7        3PX         0.00000   0.00000   0.00000   1.01914   0.00000
   8        3PY         0.00000  -0.00000  -0.00000   0.00000  -1.01914
   9        3PZ        -0.90562   0.00000   0.00000   0.00000   0.00000
  10 2   H  1S          0.00000  -0.26903   0.72419   0.00000  -1.12923
  11        2S          0.00000  -0.14206  -1.19653   0.00000   1.62085
  12 3   H  1S          0.00000  -0.26903   0.72419  -0.97794   0.56462
  13        2S          0.00000  -0.14206  -1.19653   1.40370  -0.81043
  14 4   H  1S          0.00000  -0.26903   0.72419   0.97794   0.56462
  15        2S          0.00000  -0.14206  -1.19653  -1.40370  -0.81043
     Density Matrix:
                           1         2         3         4         5
   1 1   B  1S          2.02655
   2        2S          0.07335   0.13956
   3        2PX         0.00000  -0.00000   0.28173
   4        2PY        -0.00000   0.00000   0.00000   0.28173
   5        2PZ        -0.00000   0.00000   0.00000  -0.00000   0.00000
   6        3S         -0.24443   0.18044  -0.00000   0.00000   0.00000
   7        3PX        -0.00000   0.00000   0.13137   0.00000   0.00000
   8        3PY         0.00000  -0.00000  -0.00000   0.13137  -0.00000
   9        3PZ         0.00000  -0.00000   0.00000  -0.00000   0.00000
  10 2   H  1S         -0.06927   0.07691   0.00000   0.18994   0.00000
  11        2S         -0.02523   0.06432   0.00000   0.24621   0.00000
  12 3   H  1S         -0.06927   0.07691  -0.16449  -0.09497  -0.00000
  13        2S         -0.02523   0.06432  -0.21322  -0.12310   0.00000
  14 4   H  1S         -0.06927   0.07691   0.16449  -0.09497   0.00000
  15        2S         -0.02523   0.06432   0.21322  -0.12310  -0.00000
                           6         7         8         9        10
   6        3S          0.29118
   7        3PX         0.00000   0.06126
   8        3PY         0.00000  -0.00000   0.06126
   9        3PZ        -0.00000   0.00000  -0.00000   0.00000
  10 2   H  1S          0.11816   0.00000   0.08857   0.00000   0.17650
  11        2S          0.09323   0.00000   0.11481   0.00000   0.20469
  12 3   H  1S          0.11816  -0.07670  -0.04428  -0.00000  -0.01559
  13        2S          0.09323  -0.09942  -0.05740  -0.00000  -0.04429
  14 4   H  1S          0.11816   0.07670  -0.04428   0.00000  -0.01559
  15        2S          0.09323   0.09942  -0.05740   0.00000  -0.04429
                          11        12        13        14        15
  11        2S          0.24656
  12 3   H  1S         -0.04429   0.17650
  13        2S         -0.07618   0.20469   0.24656
  14 4   H  1S         -0.04429  -0.01559  -0.04429   0.17650
  15        2S         -0.07618  -0.04429  -0.07618   0.20469   0.24656
    Full Mulliken population analysis:
                           1         2         3         4         5
   1 1   B  1S          2.02655
   2        2S          0.01341   0.13956
   3        2PX         0.00000   0.00000   0.28173
   4        2PY         0.00000   0.00000   0.00000   0.28173
   5        2PZ         0.00000   0.00000   0.00000   0.00000   0.00000
   6        3S         -0.04249   0.13989   0.00000   0.00000   0.00000
   7        3PX         0.00000   0.00000   0.07242   0.00000   0.00000
   8        3PY         0.00000   0.00000   0.00000   0.07242  -0.00000
   9        3PZ         0.00000   0.00000   0.00000  -0.00000   0.00000
  10 2   H  1S         -0.00112   0.01719   0.00000   0.06740  -0.00000
  11        2S         -0.00237   0.03015   0.00000   0.08597  -0.00000
  12 3   H  1S         -0.00112   0.01719   0.05055   0.01685  -0.00000
  13        2S         -0.00237   0.03015   0.06448   0.02149   0.00000
  14 4   H  1S         -0.00112   0.01719   0.05055   0.01685   0.00000
  15        2S         -0.00237   0.03015   0.06448   0.02149   0.00000
                           6         7         8         9        10
   6        3S          0.29118
   7        3PX         0.00000   0.06126
   8        3PY         0.00000   0.00000   0.06126
   9        3PZ         0.00000   0.00000   0.00000   0.00000
  10 2   H  1S          0.03598   0.00000   0.03732  -0.00000   0.17650
  11        2S          0.06241   0.00000   0.07249  -0.00000   0.13221
  12 3   H  1S          0.03598   0.02799   0.00933  -0.00000  -0.00003
  13        2S          0.06241   0.05437   0.01812  -0.00000  -0.00291
  14 4   H  1S          0.03598   0.02799   0.00933  -0.00000  -0.00003
  15        2S          0.06241   0.05437   0.01812  -0.00000  -0.00291
                          11        12        13        14        15
  11        2S          0.24656
  12 3   H  1S         -0.00291   0.17650
  13        2S         -0.01906   0.13221   0.24656
  14 4   H  1S         -0.00291  -0.00003  -0.00291   0.17650
  15        2S         -0.01906  -0.00291  -0.01906   0.13221   0.24656
     Gross orbital populations:
                           1
   1 1   B  1S          1.98701
   2        2S          0.43487
   3        2PX         0.58420
   4        2PY         0.58420
   5        2PZ         0.00000
   6        3S          0.68375
   7        3PX         0.29839
   8        3PY         0.29839
   9        3PZ         0.00000
  10 2   H  1S          0.45960
  11        2S          0.58346
  12 3   H  1S          0.45960
  13        2S          0.58346
  14 4   H  1S          0.45960
  15        2S          0.58346
          Condensed to atoms (all electrons):
               1          2          3          4
     1  B    3.654581   0.405411   0.405411   0.405411
     2  H    0.405411   0.687478  -0.024914  -0.024914
     3  H    0.405411  -0.024914   0.687478  -0.024914
     4  H    0.405411  -0.024914  -0.024914   0.687478
 Mulliken charges:
               1
     1  B    0.129185
     2  H   -0.043062
     3  H   -0.043062
     4  H   -0.043062
 Sum of Mulliken charges =   0.00000
 Mulliken charges with hydrogens summed into heavy atoms:
               1
     1  B    0.000000
 Electronic spatial extent (au):  <R**2>=             34.9218
 Charge=              0.0000 electrons
 Dipole moment (field-independent basis, Debye):
    X=              0.0000    Y=              0.0000    Z=             -0.0000  Tot=              0.0000
 Quadrupole moment (field-independent basis, Debye-Ang):
   XX=             -9.7038   YY=             -9.7038   ZZ=             -7.2198
   XY=              0.0000   XZ=             -0.0000   YZ=              0.0000
 Traceless Quadrupole moment (field-independent basis, Debye-Ang):
   XX=             -0.8280   YY=             -0.8280   ZZ=              1.6560
   XY=              0.0000   XZ=             -0.0000   YZ=              0.0000
 Octapole moment (field-independent basis, Debye-Ang**2):
  XXX=              0.0000  YYY=             -0.2342  ZZZ=             -0.0000  XYY=              0.0000
  XXY=              0.2342  XXZ=             -0.0000  XZZ=              0.0000  YZZ=              0.0000
  YYZ=             -0.0000  XYZ=              0.0000
 Hexadecapole moment (field-independent basis, Debye-Ang**3):
 XXXX=            -24.7537 YYYY=            -24.7537 ZZZZ=             -7.2378 XXXY=              0.0000
 XXXZ=             -0.0000 YYYX=              0.0000 YYYZ=              0.0000 ZZZX=             -0.0000
 ZZZY=              0.0000 XXYY=             -8.2512 XXZZ=             -5.4260 YYZZ=             -5.4260
 XXYZ=             -0.0000 YYXZ=             -0.0000 ZZXY=              0.0000
 N-N= 7.451799665541D+00 E-N=-7.495986554199D+01  KE= 2.614247334036D+01
 Symmetry A1   KE= 2.472588004499D+01
 Symmetry A2   KE= 0.000000000000D+00
 Symmetry B1   KE= 1.416593295375D+00
 Symmetry B2   KE= 2.137116966797D-33
 Orbital energies and kinetic energies (alpha):
                                 1                 2
   1         (A1')--O         -7.574679         10.800576
   2         (A1')--O         -0.706680          0.854068
   3         (E')--O          -0.499523          0.708297
   4         (E')--O          -0.499523          0.708297
   5         (A2")--V          0.077073          0.492271
   6         (E')--V           0.323250          0.553001
   7         (E')--V           0.323250          0.553001
   8         (A1')--V          0.348179          0.883042
   9         (E')--V           0.598523          1.480533
  10         (E')--V           0.598523          1.480533
  11         (A2")--V          0.685032          1.756490
  12         (A1')--V          0.777589          1.409843
  13         (A1')--V          1.366712          2.570746
  14         (E')--V           1.428935          2.567818
  15         (E')--V           1.428935          2.567818
 Total kinetic energy from orbitals= 2.614247334036D+01
 1\1\GINC-IISERK51\SP\RHF\3-21G\B1H3\GAUSSIAN\13-Jun-2025\0\\# hf/3-21g
  pop=full geom=connectivity\\Title Card Required\\0,1\B,0,0.,0.,0.\H,0
 ,0.,1.188199,0.\H,0,-1.02901,-0.594099,0.\H,0,1.02901,-0.594099,0.\\Ve
 rsion=EM64L-G16RevB.01\State=1-A1'\HF=-26.2373013\RMSD=3.811e-09\Dipol
 e=0.,0.,0.\Quadrupole=-0.6155885,-0.6155885,1.2311769,0.,0.,0.\PG=D03H
  [O(B1),3C2(H1)]\\@


 A FOOL CAN ASK MORE QUESTIONS THAN
 A WISE MAN CAN ANSWER.
 Job cpu time:       0 days  0 hours  0 minutes  0.4 seconds.
 Elapsed time:       0 days  0 hours  0 minutes  0.3 seconds.
 File lengths (MBytes):  RWF=      6 Int=      0 D2E=      0 Chk=      1 Scr=      1
 Normal termination of Gaussian 16 at Fri Jun 13 20:23:23 2025.
