 Entering Gaussian System, Link 0=g16
 Input=/home/gaussian/Documents/Summer_Internship/Acid_Base_adduct/Adduct/NH3 - AlH3/AlH3_only_adduct_sp.com
 Output=/home/gaussian/Documents/Summer_Internship/Acid_Base_adduct/Adduct/NH3 - AlH3/AlH3_only_adduct_sp.log
 Initial command:
 /usr/local/g16/l1.exe "/home/gaussian/tmp/Gau-79658.inp" -scrdir="/home/gaussian/tmp/"
 Entering Link 1 = /usr/local/g16/l1.exe PID=     79661.
  
 Copyright (c) 1988-2017, Gaussian, Inc.  All Rights Reserved.
  
 This is part of the Gaussian(R) 16 program.  It is based on
 the Gaussian(R) 09 system (copyright 2009, Gaussian, Inc.),
 the Gaussian(R) 03 system (copyright 2003, Gaussian, Inc.),
 the Gaussian(R) 98 system (copyright 1998, Gaussian, Inc.),
 the Gaussian(R) 94 system (copyright 1995, Gaussian, Inc.),
 the Gaussian 92(TM) system (copyright 1992, Gaussian, Inc.),
 the Gaussian 90(TM) system (copyright 1990, Gaussian, Inc.),
 the Gaussian 88(TM) system (copyright 1988, Gaussian, Inc.),
 the Gaussian 86(TM) system (copyright 1986, Carnegie Mellon
 University), and the Gaussian 82(TM) system (copyright 1983,
 Carnegie Mellon University). Gaussian is a federally registered
 trademark of Gaussian, Inc.
  
 This software contains proprietary and confidential information,
 including trade secrets, belonging to Gaussian, Inc.
  
 This software is provided under written license and may be
 used, copied, transmitted, or stored only in accord with that
 written license.
  
 The following legend is applicable only to US Government
 contracts under FAR:
  
                    RESTRICTED RIGHTS LEGEND
  
 Use, reproduction and disclosure by the US Government is
 subject to restrictions as set forth in subparagraphs (a)
 and (c) of the Commercial Computer Software - Restricted
 Rights clause in FAR 52.227-19.
  
 Gaussian, Inc.
 340 Quinnipiac St., Bldg. 40, Wallingford CT 06492
  
  
 ---------------------------------------------------------------
 Warning -- This program may not be used in any manner that
 competes with the business of Gaussian, Inc. or will provide
 assistance to any competitor of Gaussian, Inc.  The licensee
 of this program is prohibited from giving any competitor of
 Gaussian, Inc. access to this program.  By using this program,
 the user acknowledges that Gaussian, Inc. is engaged in the
 business of creating and licensing software in the field of
 computational chemistry and represents and warrants to the
 licensee that it is not a competitor of Gaussian, Inc. and that
 it will not use this program in any manner prohibited above.
 ---------------------------------------------------------------
  

 Cite this work as:
 Gaussian 16, Revision B.01,
 M. J. Frisch, G. W. Trucks, H. B. Schlegel, G. E. Scuseria, 
 M. A. Robb, J. R. Cheeseman, G. Scalmani, V. Barone, 
 G. A. Petersson, H. Nakatsuji, X. Li, M. Caricato, A. V. Marenich, 
 J. Bloino, B. G. Janesko, R. Gomperts, B. Mennucci, H. P. Hratchian, 
 J. V. Ortiz, A. F. Izmaylov, J. L. Sonnenberg, D. Williams-Young, 
 F. Ding, F. Lipparini, F. Egidi, J. Goings, B. Peng, A. Petrone, 
 T. Henderson, D. Ranasinghe, V. G. Zakrzewski, J. Gao, N. Rega, 
 G. Zheng, W. Liang, M. Hada, M. Ehara, K. Toyota, R. Fukuda, 
 J. Hasegawa, M. Ishida, T. Nakajima, Y. Honda, O. Kitao, H. Nakai, 
 T. Vreven, K. Throssell, J. A. Montgomery, Jr., J. E. Peralta, 
 F. Ogliaro, M. J. Bearpark, J. J. Heyd, E. N. Brothers, K. N. Kudin, 
 V. N. Staroverov, T. A. Keith, R. Kobayashi, J. Normand, 
 K. Raghavachari, A. P. Rendell, J. C. Burant, S. S. Iyengar, 
 J. Tomasi, M. Cossi, J. M. Millam, M. Klene, C. Adamo, R. Cammi, 
 J. W. Ochterski, R. L. Martin, K. Morokuma, O. Farkas, 
 J. B. Foresman, and D. J. Fox, Gaussian, Inc., Wallingford CT, 2016.
 
 ******************************************
 Gaussian 16:  EM64L-G16RevB.01 20-Dec-2017
                16-Jun-2025 
 ******************************************
 %chk=AlH3_only_adduct_sp.chk
 -------------------------------------
 # hf/3-21g pop=full geom=connectivity
 -------------------------------------
 1/38=1,57=2,172=1/1;
 2/12=2,17=6,18=5,40=1/2;
 3/5=5,11=9,25=1,30=1/1,2,3;
 4//1;
 5/5=2,38=5/2;
 6/7=3,28=1/1;
 99/5=1,9=1/99;
 -------------------
 Title Card Required
 -------------------
 Symbolic Z-matrix:
 Charge =  0 Multiplicity = 1
 Al                    0.        0.        0.79324 
 H                    -1.59411   0.        1.08368 
 H                     0.79705  -1.38054   1.08368 
 H                     0.79705   1.38054   1.08368 
 
                          Input orientation:                          
 ---------------------------------------------------------------------
 Center     Atomic      Atomic             Coordinates (Angstroms)
 Number     Number       Type             X           Y           Z
 ---------------------------------------------------------------------
      1         13           0        0.000000    0.000000    0.793242
      2          1           0       -1.594107    0.000000    1.083684
      3          1           0        0.797053   -1.380537    1.083684
      4          1           0        0.797053    1.380537    1.083684
 ---------------------------------------------------------------------
                    Distance matrix (angstroms):
                    1          2          3          4
     1  Al   0.000000
     2  H    1.620350   0.000000
     3  H    1.620349   2.761074   0.000000
     4  H    1.620349   2.761074   2.761074   0.000000
 Stoichiometry    AlH3
 Framework group  C3[C3(Al),X(H3)]
 Deg. of freedom     2
 Full point group                 C3      NOp   3
 Largest Abelian subgroup         C1      NOp   1
 Largest concise Abelian subgroup C1      NOp   1
                         Standard orientation:                         
 ---------------------------------------------------------------------
 Center     Atomic      Atomic             Coordinates (Angstroms)
 Number     Number       Type             X           Y           Z
 ---------------------------------------------------------------------
      1         13           0        0.000000    0.000000    0.054458
      2          1           0        0.000000    1.594107   -0.235984
      3          1           0        1.380537   -0.797053   -0.235984
      4          1           0       -1.380537   -0.797053   -0.235984
 ---------------------------------------------------------------------
 Rotational constants (GHZ):         124.1430057         124.1430057          65.7772781
 Standard basis: 3-21G (6D, 7F)
 There are    19 symmetry adapted cartesian basis functions of A   symmetry.
 There are    19 symmetry adapted basis functions of A   symmetry.
    19 basis functions,    36 primitive gaussians,    19 cartesian basis functions
     8 alpha electrons        8 beta electrons
       nuclear repulsion energy        13.3116700070 Hartrees.
 NAtoms=    4 NActive=    4 NUniq=    2 SFac= 4.00D+00 NAtFMM=   60 NAOKFM=F Big=F
 Integral buffers will be    131072 words long.
 Raffenetti 1 integral format.
 Two-electron integral symmetry is turned on.
 One-electron integrals computed using PRISM.
 NBasis=    19 RedAO= T EigKep=  8.24D-02  NBF=    19
 NBsUse=    19 1.00D-06 EigRej= -1.00D+00 NBFU=    19
 ExpMin= 6.39D-02 ExpMax= 7.76D+02 ExpMxC= 7.76D+02 IAcc=3 IRadAn=         5 AccDes= 0.00D+00
 Harris functional with IExCor=  205 and IRadAn=       5 diagonalized for initial guess.
 HarFok:  IExCor=  205 AccDes= 0.00D+00 IRadAn=         5 IDoV= 1 UseB2=F ITyADJ=14
 ICtDFT=  3500011 ScaDFX=  1.000000  1.000000  1.000000  1.000000
 FoFCou: FMM=F IPFlag=           0 FMFlag=      100000 FMFlg1=           0
         NFxFlg=           0 DoJE=T BraDBF=F KetDBF=T FulRan=T
         wScrn=  0.000000 ICntrl=       500 IOpCl=  0 I1Cent=   200000004 NGrid=           0
         NMat0=    1 NMatS0=      1 NMatT0=    0 NMatD0=    1 NMtDS0=    0 NMtDT0=    0
 Petite list used in FoFCou.
 Initial guess orbital symmetries:
       Occupied  (A) (A) (E) (E) (A) (A) (E) (E)
       Virtual   (A) (A) (E) (E) (A) (E) (E) (A) (A) (E) (E)
 The electronic state of the initial guess is 1-A.
 Keep R1 ints in memory in canonical form, NReq=822525.
 Requested convergence on RMS density matrix=1.00D-08 within 128 cycles.
 Requested convergence on MAX density matrix=1.00D-06.
 Requested convergence on             energy=1.00D-06.
 No special actions if energy rises.
 SCF Done:  E(RHF) =  -242.275473480     A.U. after    8 cycles
            NFock=  8  Conv=0.23D-08     -V/T= 2.0011

 **********************************************************************

            Population analysis using the SCF Density.

 **********************************************************************

 Orbital symmetries:
       Occupied  (A) (A) (A) (E) (E) (A) (E) (E)
       Virtual   (A) (E) (E) (A) (A) (A) (E) (E) (A) (E) (E)
 The electronic state is 1-A.
 Alpha  occ. eigenvalues --  -58.06528  -4.87624  -3.17983  -3.17848  -3.17848
 Alpha  occ. eigenvalues --   -0.56830  -0.42013  -0.42013
 Alpha virt. eigenvalues --    0.01741   0.17246   0.17246   0.21048   0.28812
 Alpha virt. eigenvalues --    0.37332   0.38306   0.38306   1.34714   1.37327
 Alpha virt. eigenvalues --    1.37327
     Molecular Orbital Coefficients:
                           1         2         3         4         5
                           O         O         O         O         O
     Eigenvalues --   -58.06528  -4.87624  -3.17983  -3.17848  -3.17848
   1 1   Al 1S          0.98855  -0.28423   0.00168   0.00000  -0.00000
   2        2S          0.04408   1.01112  -0.00600  -0.00000   0.00000
   3        2PX        -0.00000  -0.00000   0.00000  -0.35950   0.91021
   4        2PY        -0.00000   0.00000  -0.00000   0.91021   0.35950
   5        2PZ         0.00001   0.00579   0.97874   0.00000  -0.00000
   6        3S         -0.01091   0.08871   0.00065   0.00000   0.00000
   7        3PX         0.00000  -0.00000   0.00000  -0.03187   0.08070
   8        3PY         0.00000   0.00000  -0.00000   0.08070   0.03187
   9        3PZ         0.00013   0.00043   0.08594   0.00000  -0.00000
  10        4S          0.00348  -0.03167  -0.00214  -0.00000   0.00000
  11        4PX        -0.00000   0.00000  -0.00000   0.00925  -0.02342
  12        4PY         0.00000   0.00000   0.00000  -0.02342  -0.00925
  13        4PZ         0.00014  -0.00082  -0.02978  -0.00000   0.00000
  14 2   H  1S          0.00074  -0.00301   0.00078  -0.00455  -0.00180
  15        2S          0.00035  -0.00065   0.00069  -0.00319  -0.00126
  16 3   H  1S          0.00074  -0.00301   0.00078   0.00383  -0.00304
  17        2S          0.00035  -0.00065   0.00069   0.00268  -0.00213
  18 4   H  1S          0.00074  -0.00301   0.00078   0.00072   0.00484
  19        2S          0.00035  -0.00065   0.00069   0.00050   0.00339
                           6         7         8         9        10
                           O         O         O         V         V
     Eigenvalues --    -0.56830  -0.42013  -0.42013   0.01741   0.17246
   1 1   Al 1S          0.05015   0.00000   0.00000   0.01053  -0.00000
   2        2S         -0.24936  -0.00000  -0.00000  -0.06163   0.00000
   3        2PX         0.00000  -0.00222  -0.15085  -0.00000   0.01505
   4        2PY         0.00000  -0.15085   0.00222   0.00000  -0.01561
   5        2PZ         0.01414   0.00000  -0.00000  -0.14492   0.00000
   6        3S          0.36808   0.00000   0.00000   0.03779  -0.00000
   7        3PX         0.00000   0.00427   0.29088   0.00000  -0.01045
   8        3PY        -0.00000   0.29088  -0.00427  -0.00000   0.01084
   9        3PZ        -0.01830  -0.00000   0.00000   0.25210  -0.00000
  10        4S          0.21976  -0.00000  -0.00000   0.34901  -0.00000
  11        4PX        -0.00000   0.00150   0.10208   0.00000  -1.03390
  12        4PY        -0.00000   0.10208  -0.00150  -0.00000   1.07259
  13        4PZ         0.00832   0.00000  -0.00000   0.74672   0.00000
  14 2   H  1S          0.13558   0.22982  -0.00338  -0.03378  -0.05457
  15        2S          0.20033   0.43006  -0.00632  -0.12067  -0.70087
  16 3   H  1S          0.13558  -0.11198   0.20072  -0.03378   0.07284
  17        2S          0.20033  -0.20956   0.37560  -0.12067   0.93552
  18 4   H  1S          0.13558  -0.11783  -0.19734  -0.03378  -0.01827
  19        2S          0.20033  -0.22050  -0.36928  -0.12067  -0.23464
                          11        12        13        14        15
                           V         V         V         V         V
     Eigenvalues --     0.17246   0.21048   0.28812   0.37332   0.38306
   1 1   Al 1S         -0.00000   0.01745   0.06436  -0.01169   0.00000
   2        2S          0.00000  -0.14911  -0.16819   0.04285  -0.00000
   3        2PX        -0.01561  -0.00000   0.00000   0.00000   0.07180
   4        2PY        -0.01505   0.00000   0.00000  -0.00000  -0.31063
   5        2PZ        -0.00000   0.00019  -0.04605  -0.31953   0.00000
   6        3S         -0.00000  -0.19954   1.72199  -0.24280   0.00000
   7        3PX         0.01084   0.00000  -0.00000  -0.00000  -0.32273
   8        3PY         0.01045  -0.00000  -0.00000   0.00000   1.39613
   9        3PZ         0.00000   0.03298   0.19413   1.35608  -0.00000
  10        4S          0.00000   1.91527  -1.33595  -0.08837   0.00000
  11        4PX         1.07259  -0.00000   0.00000   0.00000   0.13194
  12        4PY         1.03390   0.00000   0.00000  -0.00000  -0.57079
  13        4PZ        -0.00000  -0.53075  -0.22242  -0.99501   0.00000
  14 2   H  1S         -0.05260  -0.09442  -0.02768   0.00860  -0.00312
  15        2S         -0.67559  -0.83537  -0.12702   0.17322  -0.56969
  16 3   H  1S         -0.02096  -0.09442  -0.02768   0.00860   0.00218
  17        2S         -0.26918  -0.83537  -0.12702   0.17322   0.39889
  18 4   H  1S          0.07356  -0.09442  -0.02768   0.00860   0.00094
  19        2S          0.94477  -0.83537  -0.12702   0.17322   0.17080
                          16        17        18        19
                           V         V         V         V
     Eigenvalues --     0.38306   1.34714   1.37327   1.37327
   1 1   Al 1S         -0.00000  -0.01299   0.00000   0.00000
   2        2S          0.00000   0.06438  -0.00000  -0.00000
   3        2PX        -0.31063   0.00000   0.02365   0.08161
   4        2PY        -0.07180  -0.00000  -0.08161   0.02365
   5        2PZ        -0.00000  -0.01933   0.00000   0.00000
   6        3S         -0.00000  -0.06535   0.00000   0.00000
   7        3PX         1.39613  -0.00000  -0.02545  -0.08783
   8        3PY         0.32273   0.00000   0.08783  -0.02545
   9        3PZ         0.00000   0.00602  -0.00000  -0.00000
  10        4S         -0.00000   1.12989  -0.00000  -0.00000
  11        4PX        -0.57079   0.00000   0.17106   0.59039
  12        4PY        -0.13194  -0.00000  -0.59039   0.17106
  13        4PZ        -0.00000  -0.19439   0.00000   0.00000
  14 2   H  1S         -0.00072   0.79706  -1.08114   0.31326
  15        2S         -0.13169  -1.06295   1.24847  -0.36174
  16 3   H  1S         -0.00234   0.79706   0.81186   0.77967
  17        2S         -0.42752  -1.06295  -0.93751  -0.90034
  18 4   H  1S          0.00306   0.79706   0.26928  -1.09293
  19        2S          0.55921  -1.06295  -0.31096   1.26208
     Density Matrix:
                           1         2         3         4         5
   1 1   Al 1S          2.12107
   2        2S         -0.51267   2.17304
   3        2PX        -0.00000  -0.00000   1.96097
   4        2PY        -0.00000  -0.00000  -0.00000   1.96097
   5        2PZ         0.00143  -0.00709   0.00000  -0.00000   1.91635
   6        3S         -0.03506  -0.00515   0.00000   0.00000   0.01270
   7        3PX         0.00000  -0.00000   0.08204   0.00000  -0.00000
   8        3PY         0.00000   0.00000  -0.00000   0.08204   0.00000
   9        3PZ        -0.00153   0.00898  -0.00000  -0.00000   0.16771
  10        4S          0.04693  -0.17331   0.00000   0.00000   0.00165
  11        4PX        -0.00000   0.00000  -0.08009   0.00000  -0.00000
  12        4PY         0.00000   0.00000  -0.00000  -0.08009   0.00000
  13        4PZ         0.00149  -0.00545   0.00000   0.00000  -0.05806
  14 2   H  1S          0.01679  -0.07364   0.00000  -0.07892   0.00533
  15        2S          0.02117  -0.10120   0.00000  -0.13648   0.00700
  16 3   H  1S          0.01679  -0.07364  -0.06835   0.03946   0.00533
  17        2S          0.02117  -0.10120  -0.11820   0.06824   0.00700
  18 4   H  1S          0.01679  -0.07364   0.06835   0.03946   0.00533
  19        2S          0.02117  -0.10120   0.11820   0.06824   0.00700
                           6         7         8         9        10
   6        3S          0.28694
   7        3PX         0.00000   0.18432
   8        3PY         0.00000   0.00000   0.18432
   9        3PZ        -0.01329   0.00000  -0.00000   0.01544
  10        4S          0.15608  -0.00000  -0.00000  -0.00844   0.09863
  11        4PX         0.00000   0.05503  -0.00000   0.00000  -0.00000
  12        4PY         0.00000   0.00000   0.05503   0.00000  -0.00000
  13        4PZ         0.00594  -0.00000   0.00000  -0.00542   0.00384
  14 2   H  1S          0.09926  -0.00000   0.13288  -0.00483   0.05978
  15        2S          0.14735  -0.00000   0.24966  -0.00721   0.08809
  16 3   H  1S          0.09926   0.11508  -0.06644  -0.00483   0.05978
  17        2S          0.14735   0.21621  -0.12483  -0.00721   0.08809
  18 4   H  1S          0.09926  -0.11508  -0.06644  -0.00483   0.05978
  19        2S          0.14735  -0.21621  -0.12483  -0.00721   0.08809
                          11        12        13        14        15
  11        4PX         0.02211
  12        4PY        -0.00000   0.02211
  13        4PZ        -0.00000  -0.00000   0.00191
  14 2   H  1S         -0.00000   0.04718   0.00221   0.14248
  15        2S         -0.00000   0.08799   0.00329   0.25207   0.45027
  16 3   H  1S          0.04086  -0.02359   0.00221  -0.01607  -0.04455
  17        2S          0.07620  -0.04400   0.00329  -0.04455  -0.10474
  18 4   H  1S         -0.04086  -0.02359   0.00221  -0.01607  -0.04455
  19        2S         -0.07620  -0.04400   0.00329  -0.04455  -0.10474
                          16        17        18        19
  16 3   H  1S          0.14248
  17        2S          0.25207   0.45027
  18 4   H  1S         -0.01607  -0.04455   0.14248
  19        2S         -0.04455  -0.10474   0.25207   0.45027
    Full Mulliken population analysis:
                           1         2         3         4         5
   1 1   Al 1S          2.12107
   2        2S         -0.12357   2.17304
   3        2PX         0.00000   0.00000   1.96097
   4        2PY         0.00000   0.00000  -0.00000   1.96097
   5        2PZ         0.00000   0.00000   0.00000   0.00000   1.91635
   6        3S         -0.00043  -0.00132   0.00000   0.00000   0.00000
   7        3PX         0.00000   0.00000   0.01983  -0.00000   0.00000
   8        3PY         0.00000   0.00000  -0.00000   0.01983   0.00000
   9        3PZ         0.00000   0.00000   0.00000   0.00000   0.04053
  10        4S          0.00119  -0.03782   0.00000   0.00000   0.00000
  11        4PX         0.00000   0.00000  -0.00471   0.00000   0.00000
  12        4PY         0.00000   0.00000   0.00000  -0.00471   0.00000
  13        4PZ         0.00000   0.00000   0.00000   0.00000  -0.00341
  14 2   H  1S          0.00000  -0.00030  -0.00000  -0.00056  -0.00001
  15        2S          0.00021  -0.00933  -0.00000  -0.00695  -0.00006
  16 3   H  1S          0.00000  -0.00030  -0.00042  -0.00014  -0.00001
  17        2S          0.00021  -0.00933  -0.00521  -0.00174  -0.00006
  18 4   H  1S          0.00000  -0.00030  -0.00042  -0.00014  -0.00001
  19        2S          0.00021  -0.00933  -0.00521  -0.00174  -0.00006
                           6         7         8         9        10
   6        3S          0.28694
   7        3PX         0.00000   0.18432
   8        3PY         0.00000  -0.00000   0.18432
   9        3PZ         0.00000   0.00000   0.00000   0.01544
  10        4S          0.12888   0.00000   0.00000   0.00000   0.09863
  11        4PX         0.00000   0.03655   0.00000   0.00000   0.00000
  12        4PY         0.00000   0.00000   0.03655   0.00000   0.00000
  13        4PZ         0.00000   0.00000   0.00000  -0.00360   0.00000
  14 2   H  1S          0.01664   0.00000   0.04154   0.00028   0.01203
  15        2S          0.06359   0.00000   0.12852   0.00068   0.04630
  16 3   H  1S          0.01664   0.03115   0.01038   0.00028   0.01203
  17        2S          0.06359   0.09639   0.03213   0.00068   0.04630
  18 4   H  1S          0.01664   0.03115   0.01038   0.00028   0.01203
  19        2S          0.06359   0.09639   0.03213   0.00068   0.04630
                          11        12        13        14        15
  11        4PX         0.02211
  12        4PY        -0.00000   0.02211
  13        4PZ         0.00000   0.00000   0.00191
  14 2   H  1S          0.00000   0.01346  -0.00012   0.14248
  15        2S          0.00000   0.05222  -0.00036   0.16281   0.45027
  16 3   H  1S          0.01009   0.00336  -0.00012  -0.00000  -0.00047
  17        2S          0.03917   0.01306  -0.00036  -0.00047  -0.00865
  18 4   H  1S          0.01009   0.00336  -0.00012  -0.00000  -0.00047
  19        2S          0.03917   0.01306  -0.00036  -0.00047  -0.00865
                          16        17        18        19
  16 3   H  1S          0.14248
  17        2S          0.16281   0.45027
  18 4   H  1S         -0.00000  -0.00047   0.14248
  19        2S         -0.00047  -0.00865   0.16281   0.45027
     Gross orbital populations:
                           1
   1 1   Al 1S          1.99891
   2        2S          1.98143
   3        2PX         1.96482
   4        2PY         1.96482
   5        2PZ         1.95325
   6        3S          0.65478
   7        3PX         0.49578
   8        3PY         0.49578
   9        3PZ         0.05523
  10        4S          0.36587
  11        4PX         0.15248
  12        4PY         0.15248
  13        4PZ        -0.00652
  14 2   H  1S          0.38731
  15        2S          0.86966
  16 3   H  1S          0.38731
  17        2S          0.86966
  18 4   H  1S          0.38731
  19        2S          0.86966
          Condensed to atoms (all electrons):
               1          2          3          4
     1  Al  11.155771   0.357779   0.357779   0.357779
     2  H    0.357779   0.918382  -0.009599  -0.009599
     3  H    0.357779  -0.009599   0.918382  -0.009599
     4  H    0.357779  -0.009599  -0.009599   0.918382
 Mulliken charges:
               1
     1  Al   0.770891
     2  H   -0.256964
     3  H   -0.256964
     4  H   -0.256964
 Sum of Mulliken charges =  -0.00000
 Mulliken charges with hydrogens summed into heavy atoms:
               1
     1  Al  -0.000000
 Electronic spatial extent (au):  <R**2>=             65.6384
 Charge=             -0.0000 electrons
 Dipole moment (field-independent basis, Debye):
    X=             -0.0000    Y=             -0.0000    Z=              1.6396  Tot=              1.6396
 Quadrupole moment (field-independent basis, Debye-Ang):
   XX=            -19.4458   YY=            -19.4458   ZZ=            -11.7894
   XY=              0.0000   XZ=              0.0000   YZ=              0.0000
 Traceless Quadrupole moment (field-independent basis, Debye-Ang):
   XX=             -2.5521   YY=             -2.5521   ZZ=              5.1043
   XY=              0.0000   XZ=              0.0000   YZ=              0.0000
 Octapole moment (field-independent basis, Debye-Ang**2):
  XXX=             -0.0000  YYY=             -3.8505  ZZZ=              2.9995  XYY=              0.0000
  XXY=              3.8505  XXZ=              1.7274  XZZ=             -0.0000  YZZ=              0.0000
  YYZ=              1.7274  XYZ=             -0.0000
 Hexadecapole moment (field-independent basis, Debye-Ang**3):
 XXXX=            -66.8734 YYYY=            -66.8734 ZZZZ=            -15.4902 XXXY=              0.0000
 XXXZ=              0.0000 YYYX=              0.0000 YYYZ=              0.4798 ZZZX=              0.0000
 ZZZY=              0.0000 XXYY=            -22.2911 XXZZ=            -12.7444 YYZZ=            -12.7444
 XXYZ=             -0.4798 YYXZ=             -0.0000 ZZXY=              0.0000
 N-N= 1.331167000698D+01 E-N=-6.054034202128D+02  KE= 2.420028654928D+02
 Orbital energies and kinetic energies (alpha):
                                 1                 2
   1         O               -58.065281         78.666660
   2         O                -4.876236         11.080751
   3         O                -3.179826          9.729350
   4         O                -3.178483          9.727656
   5         O                -3.178483          9.727656
   6         O                -0.568296          0.772926
   7         O                -0.420130          0.648217
   8         O                -0.420130          0.648217
   9         V                 0.017415          0.432738
  10         V                 0.172465          0.325674
  11         V                 0.172465          0.325674
  12         V                 0.210478          0.538058
  13         V                 0.288121          1.228178
  14         V                 0.373321          1.501175
  15         V                 0.383058          1.495491
  16         V                 0.383058          1.495491
  17         V                 1.347142          2.274094
  18         V                 1.373269          2.347716
  19         V                 1.373269          2.347716
 Total kinetic energy from orbitals= 2.420028654928D+02
 1\1\GINC-IISERK51\SP\RHF\3-21G\Al1H3\GAUSSIAN\16-Jun-2025\0\\# hf/3-21
 g pop=full geom=connectivity\\Title Card Required\\0,1\Al,0,0.,0.,0.79
 3242\H,0,-1.594107,0.,1.083684\H,0,0.797053,-1.380537,1.083684\H,0,0.7
 97053,1.380537,1.083684\\Version=EM64L-G16RevB.01\State=1-A\HF=-242.27
 54735\RMSD=2.325e-09\Dipole=0.,0.,-0.6450622\Quadrupole=-1.8974492,-1.
 8974492,3.7948985,0.,0.,0.\PG=C03 [C3(Al1),X(H3)]\\@


 THE RED LIGHT IS ALWAYS LONGER THAN THE GREEN LIGHT.

                     -- PETER'S THEORY OF RELATIVITY
 Job cpu time:       0 days  0 hours  0 minutes  0.4 seconds.
 Elapsed time:       0 days  0 hours  0 minutes  0.4 seconds.
 File lengths (MBytes):  RWF=      6 Int=      0 D2E=      0 Chk=      1 Scr=      1
 Normal termination of Gaussian 16 at Mon Jun 16 22:02:30 2025.
