 Entering Gaussian System, Link 0=g16
 Input=/home/gaussian/Documents/Summer_Internship/Acid_Base_adduct/Adduct/NH3 - AlH3/NH3_AlH3_sp.com
 Output=/home/gaussian/Documents/Summer_Internship/Acid_Base_adduct/Adduct/NH3 - AlH3/NH3_AlH3_sp.log
 Initial command:
 /usr/local/g16/l1.exe "/home/gaussian/tmp/Gau-79591.inp" -scrdir="/home/gaussian/tmp/"
 Entering Link 1 = /usr/local/g16/l1.exe PID=     79594.
  
 Copyright (c) 1988-2017, Gaussian, Inc.  All Rights Reserved.
  
 This is part of the Gaussian(R) 16 program.  It is based on
 the Gaussian(R) 09 system (copyright 2009, Gaussian, Inc.),
 the Gaussian(R) 03 system (copyright 2003, Gaussian, Inc.),
 the Gaussian(R) 98 system (copyright 1998, Gaussian, Inc.),
 the Gaussian(R) 94 system (copyright 1995, Gaussian, Inc.),
 the Gaussian 92(TM) system (copyright 1992, Gaussian, Inc.),
 the Gaussian 90(TM) system (copyright 1990, Gaussian, Inc.),
 the Gaussian 88(TM) system (copyright 1988, Gaussian, Inc.),
 the Gaussian 86(TM) system (copyright 1986, Carnegie Mellon
 University), and the Gaussian 82(TM) system (copyright 1983,
 Carnegie Mellon University). Gaussian is a federally registered
 trademark of Gaussian, Inc.
  
 This software contains proprietary and confidential information,
 including trade secrets, belonging to Gaussian, Inc.
  
 This software is provided under written license and may be
 used, copied, transmitted, or stored only in accord with that
 written license.
  
 The following legend is applicable only to US Government
 contracts under FAR:
  
                    RESTRICTED RIGHTS LEGEND
  
 Use, reproduction and disclosure by the US Government is
 subject to restrictions as set forth in subparagraphs (a)
 and (c) of the Commercial Computer Software - Restricted
 Rights clause in FAR 52.227-19.
  
 Gaussian, Inc.
 340 Quinnipiac St., Bldg. 40, Wallingford CT 06492
  
  
 ---------------------------------------------------------------
 Warning -- This program may not be used in any manner that
 competes with the business of Gaussian, Inc. or will provide
 assistance to any competitor of Gaussian, Inc.  The licensee
 of this program is prohibited from giving any competitor of
 Gaussian, Inc. access to this program.  By using this program,
 the user acknowledges that Gaussian, Inc. is engaged in the
 business of creating and licensing software in the field of
 computational chemistry and represents and warrants to the
 licensee that it is not a competitor of Gaussian, Inc. and that
 it will not use this program in any manner prohibited above.
 ---------------------------------------------------------------
  

 Cite this work as:
 Gaussian 16, Revision B.01,
 M. J. Frisch, G. W. Trucks, H. B. Schlegel, G. E. Scuseria, 
 M. A. Robb, J. R. Cheeseman, G. Scalmani, V. Barone, 
 G. A. Petersson, H. Nakatsuji, X. Li, M. Caricato, A. V. Marenich, 
 J. Bloino, B. G. Janesko, R. Gomperts, B. Mennucci, H. P. Hratchian, 
 J. V. Ortiz, A. F. Izmaylov, J. L. Sonnenberg, D. Williams-Young, 
 F. Ding, F. Lipparini, F. Egidi, J. Goings, B. Peng, A. Petrone, 
 T. Henderson, D. Ranasinghe, V. G. Zakrzewski, J. Gao, N. Rega, 
 G. Zheng, W. Liang, M. Hada, M. Ehara, K. Toyota, R. Fukuda, 
 J. Hasegawa, M. Ishida, T. Nakajima, Y. Honda, O. Kitao, H. Nakai, 
 T. Vreven, K. Throssell, J. A. Montgomery, Jr., J. E. Peralta, 
 F. Ogliaro, M. J. Bearpark, J. J. Heyd, E. N. Brothers, K. N. Kudin, 
 V. N. Staroverov, T. A. Keith, R. Kobayashi, J. Normand, 
 K. Raghavachari, A. P. Rendell, J. C. Burant, S. S. Iyengar, 
 J. Tomasi, M. Cossi, J. M. Millam, M. Klene, C. Adamo, R. Cammi, 
 J. W. Ochterski, R. L. Martin, K. Morokuma, O. Farkas, 
 J. B. Foresman, and D. J. Fox, Gaussian, Inc., Wallingford CT, 2016.
 
 ******************************************
 Gaussian 16:  EM64L-G16RevB.01 20-Dec-2017
                16-Jun-2025 
 ******************************************
 %chk=NH3_AlH3_sp.chk
 -------------------------------------
 # hf/3-21g pop=full geom=connectivity
 -------------------------------------
 1/38=1,57=2,172=1/1;
 2/12=2,17=6,18=5,40=1/2;
 3/5=5,11=9,25=1,30=1/1,2,3;
 4//1;
 5/5=2,38=5/2;
 6/7=3,28=1/1;
 99/5=1,9=1/99;
 -------------------
 Title Card Required
 -------------------
 Symbolic Z-matrix:
 Charge =  0 Multiplicity = 1
 N                     0.        0.       -1.2545 
 H                     0.8249    0.47625  -1.5939 
 H                    -0.8249    0.47625  -1.5939 
 H                     0.       -0.95251  -1.5939 
 Al                    0.        0.        0.79324 
 H                     0.        1.59411   1.08368 
 H                    -1.38054  -0.79705   1.08368 
 H                     1.38054  -0.79705   1.08368 
 
                          Input orientation:                          
 ---------------------------------------------------------------------
 Center     Atomic      Atomic             Coordinates (Angstroms)
 Number     Number       Type             X           Y           Z
 ---------------------------------------------------------------------
      1          7           0        0.000000    0.000000   -1.254501
      2          1           0        0.824896    0.476254   -1.593899
      3          1           0       -0.824896    0.476254   -1.593899
      4          1           0        0.000000   -0.952508   -1.593899
      5         13           0        0.000000    0.000000    0.793242
      6          1           0        0.000000    1.594107    1.083684
      7          1           0       -1.380537   -0.797053    1.083684
      8          1           0        1.380537   -0.797053    1.083684
 ---------------------------------------------------------------------
                    Distance matrix (angstroms):
                    1          2          3          4          5
     1  N    0.000000
     2  H    1.011169   0.000000
     3  H    1.011169   1.649792   0.000000
     4  H    1.011169   1.649792   1.649792   0.000000
     5  Al   2.047743   2.570158   2.570158   2.570158   0.000000
     6  H    2.829892   3.016538   3.016538   3.695226   1.620350
     7  H    2.829891   3.695226   3.016537   3.016538   1.620349
     8  H    2.829891   3.016537   3.695226   3.016538   1.620349
                    6          7          8
     6  H    0.000000
     7  H    2.761074   0.000000
     8  H    2.761074   2.761074   0.000000
 Stoichiometry    AlH6N
 Framework group  C3[C3(NAl),X(H6)]
 Deg. of freedom     6
 Full point group                 C3      NOp   3
 Largest Abelian subgroup         C1      NOp   1
 Largest concise Abelian subgroup C1      NOp   1
                         Standard orientation:                         
 ---------------------------------------------------------------------
 Center     Atomic      Atomic             Coordinates (Angstroms)
 Number     Number       Type             X           Y           Z
 ---------------------------------------------------------------------
      1          7           0       -0.000000    0.000000   -1.254501
      2          1           0       -0.476254    0.824896   -1.593899
      3          1           0       -0.476254   -0.824896   -1.593899
      4          1           0        0.952508    0.000000   -1.593899
      5         13           0       -0.000000    0.000000    0.793242
      6          1           0       -1.594107    0.000000    1.083684
      7          1           0        0.797053   -1.380537    1.083684
      8          1           0        0.797053    1.380537    1.083684
 ---------------------------------------------------------------------
 Rotational constants (GHZ):          48.4715702           9.1308516           9.1308516
 Standard basis: 3-21G (6D, 7F)
 There are    34 symmetry adapted cartesian basis functions of A   symmetry.
 There are    34 symmetry adapted basis functions of A   symmetry.
    34 basis functions,    60 primitive gaussians,    34 cartesian basis functions
    13 alpha electrons       13 beta electrons
       nuclear repulsion energy        62.2190022518 Hartrees.
 NAtoms=    8 NActive=    8 NUniq=    4 SFac= 4.00D+00 NAtFMM=   60 NAOKFM=F Big=F
 Integral buffers will be    131072 words long.
 Raffenetti 1 integral format.
 Two-electron integral symmetry is turned on.
 One-electron integrals computed using PRISM.
 NBasis=    34 RedAO= T EigKep=  4.20D-02  NBF=    34
 NBsUse=    34 1.00D-06 EigRej= -1.00D+00 NBFU=    34
 ExpMin= 6.39D-02 ExpMax= 7.76D+02 ExpMxC= 7.76D+02 IAcc=3 IRadAn=         5 AccDes= 0.00D+00
 Harris functional with IExCor=  205 and IRadAn=       5 diagonalized for initial guess.
 HarFok:  IExCor=  205 AccDes= 0.00D+00 IRadAn=         5 IDoV= 1 UseB2=F ITyADJ=14
 ICtDFT=  3500011 ScaDFX=  1.000000  1.000000  1.000000  1.000000
 FoFCou: FMM=F IPFlag=           0 FMFlag=      100000 FMFlg1=           0
         NFxFlg=           0 DoJE=T BraDBF=F KetDBF=T FulRan=T
         wScrn=  0.000000 ICntrl=       500 IOpCl=  0 I1Cent=   200000004 NGrid=           0
         NMat0=    1 NMatS0=      1 NMatT0=    0 NMatD0=    1 NMtDS0=    0 NMtDT0=    0
 Petite list used in FoFCou.
 Initial guess orbital symmetries:
       Occupied  (A) (A) (A) (E) (E) (A) (A) (E) (E) (A) (A) (E)
                 (E)
       Virtual   (A) (A) (E) (E) (A) (E) (E) (A) (E) (E) (A) (E)
                 (E) (A) (E) (E) (A) (E) (E) (A) (A)
 The electronic state of the initial guess is 1-A.
 Keep R1 ints in memory in canonical form, NReq=988948.
 Requested convergence on RMS density matrix=1.00D-08 within 128 cycles.
 Requested convergence on MAX density matrix=1.00D-06.
 Requested convergence on             energy=1.00D-06.
 No special actions if energy rises.
 SCF Done:  E(RHF) =  -298.224645642     A.U. after    9 cycles
            NFock=  9  Conv=0.82D-08     -V/T= 2.0018

 **********************************************************************

            Population analysis using the SCF Density.

 **********************************************************************

 Orbital symmetries:
       Occupied  (A) (A) (A) (E) (E) (A) (A) (E) (E) (A) (A) (E)
                 (E)
       Virtual   (A) (E) (E) (A) (E) (E) (A) (A) (E) (E) (A) (E)
                 (E) (A) (E) (E) (A) (E) (E) (A) (A)
 The electronic state is 1-A.
 Alpha  occ. eigenvalues --  -58.00964 -15.56995  -4.81625  -3.12023  -3.12023
 Alpha  occ. eigenvalues --   -3.12003  -1.24919  -0.73246  -0.73246  -0.61847
 Alpha  occ. eigenvalues --   -0.47391  -0.37843  -0.37843
 Alpha virt. eigenvalues --    0.12554   0.20490   0.20490   0.22188   0.29956
 Alpha virt. eigenvalues --    0.29956   0.34652   0.37735   0.42702   0.42702
 Alpha virt. eigenvalues --    0.48301   1.12524   1.12524   1.23851   1.39737
 Alpha virt. eigenvalues --    1.39737   1.44016   1.51235   1.51235   1.53820
 Alpha virt. eigenvalues --    2.58630
     Molecular Orbital Coefficients:
                           1         2         3         4         5
                           O         O         O         O         O
     Eigenvalues --   -58.00964 -15.56995  -4.81625  -3.12023  -3.12023
   1 1   N  1S         -0.00016   0.98562   0.00060  -0.00000  -0.00000
   2        2S         -0.00129   0.09925   0.00467  -0.00000  -0.00000
   3        2PX        -0.00000  -0.00000  -0.00000  -0.00089   0.00118
   4        2PY         0.00000   0.00000  -0.00000   0.00118   0.00089
   5        2PZ        -0.00055  -0.00162   0.00126  -0.00000  -0.00000
   6        3S          0.00264  -0.05214  -0.01284   0.00000   0.00000
   7        3PX         0.00000   0.00000   0.00000   0.00464  -0.00614
   8        3PY        -0.00000   0.00000   0.00000  -0.00614  -0.00464
   9        3PZ         0.00237   0.00349  -0.00755   0.00000   0.00000
  10 2   H  1S         -0.00036   0.00170   0.00101   0.00176   0.00022
  11        2S          0.00021   0.00902   0.00314   0.00457   0.00057
  12 3   H  1S         -0.00036   0.00170   0.00101  -0.00069  -0.00163
  13        2S          0.00021   0.00902   0.00314  -0.00179  -0.00424
  14 4   H  1S         -0.00036   0.00170   0.00101  -0.00107   0.00141
  15        2S          0.00021   0.00902   0.00314  -0.00278   0.00367
  16 5   Al 1S          0.98852   0.00011  -0.28407  -0.00000  -0.00000
  17        2S          0.04427  -0.00034   1.01055   0.00000   0.00000
  18        2PX         0.00000   0.00000  -0.00000  -0.59019   0.78029
  19        2PY         0.00000  -0.00000   0.00000   0.78029   0.59019
  20        2PZ        -0.00021   0.00068  -0.00167   0.00000   0.00000
  21        3S         -0.01136   0.00388   0.09323  -0.00000  -0.00000
  22        3PX        -0.00000  -0.00000  -0.00000  -0.05311   0.07021
  23        3PY         0.00000  -0.00000  -0.00000   0.07021   0.05311
  24        3PZ         0.00123  -0.00510  -0.00694   0.00000   0.00000
  25        4S          0.00133  -0.00070  -0.03112   0.00000   0.00000
  26        4PX         0.00000   0.00000  -0.00000   0.01524  -0.02015
  27        4PY        -0.00000   0.00000   0.00000  -0.02015  -0.01524
  28        4PZ         0.00010   0.00255   0.00395  -0.00000  -0.00000
  29 6   H  1S          0.00058   0.00002  -0.00287  -0.00300   0.00397
  30        2S          0.00119  -0.00058  -0.00169  -0.00221   0.00292
  31 7   H  1S          0.00058   0.00002  -0.00287   0.00494   0.00062
  32        2S          0.00119  -0.00058  -0.00169   0.00363   0.00045
  33 8   H  1S          0.00058   0.00002  -0.00287  -0.00194  -0.00459
  34        2S          0.00119  -0.00058  -0.00169  -0.00142  -0.00337
                           6         7         8         9        10
                           O         O         O         O         O
     Eigenvalues --    -3.12003  -1.24919  -0.73246  -0.73246  -0.61847
   1 1   N  1S         -0.00027  -0.22152  -0.00000   0.00000  -0.03015
   2        2S         -0.00536   0.19908   0.00000  -0.00000   0.02064
   3        2PX        -0.00000  -0.00000   0.39571   0.02762  -0.00000
   4        2PY        -0.00000   0.00000  -0.02762   0.39571  -0.00000
   5        2PZ        -0.00045  -0.05197   0.00000   0.00000   0.37400
   6        3S          0.01964   0.69142   0.00000  -0.00000   0.15276
   7        3PX         0.00000   0.00000   0.38232   0.02668  -0.00000
   8        3PY         0.00000  -0.00000  -0.02668   0.38232  -0.00000
   9        3PZ         0.00830  -0.04636   0.00000   0.00000   0.45164
  10 2   H  1S         -0.00138   0.11452  -0.14190   0.21043  -0.05561
  11        2S         -0.00628   0.00661  -0.09402   0.13944  -0.05698
  12 3   H  1S         -0.00138   0.11452  -0.11129  -0.22811  -0.05561
  13        2S         -0.00628   0.00661  -0.07374  -0.15115  -0.05698
  14 4   H  1S         -0.00138   0.11452   0.25319   0.01767  -0.05561
  15        2S         -0.00628   0.00661   0.16777   0.01171  -0.05698
  16 5   Al 1S         -0.00100   0.00425   0.00000  -0.00000   0.03326
  17        2S          0.00350  -0.02039  -0.00000   0.00000  -0.16585
  18        2PX        -0.00000   0.00000  -0.01313  -0.00092   0.00000
  19        2PY        -0.00000  -0.00000   0.00092  -0.01313  -0.00000
  20        2PZ         0.97728   0.01938   0.00000  -0.00000   0.04875
  21        3S         -0.00684   0.01214   0.00000   0.00000   0.20184
  22        3PX        -0.00000  -0.00000   0.01557   0.00109  -0.00000
  23        3PY        -0.00000   0.00000  -0.00109   0.01557   0.00000
  24        3PZ         0.09513  -0.00619  -0.00000   0.00000  -0.04588
  25        4S          0.00271   0.02027   0.00000  -0.00000   0.16071
  26        4PX         0.00000   0.00000   0.01271   0.00089  -0.00000
  27        4PY         0.00000  -0.00000  -0.00089   0.01271  -0.00000
  28        4PZ        -0.03505  -0.01117   0.00000   0.00000  -0.03289
  29 6   H  1S         -0.00101   0.00201  -0.00775  -0.00054   0.06047
  30        2S          0.00038  -0.00157  -0.00717  -0.00050   0.07092
  31 7   H  1S         -0.00101   0.00201   0.00435  -0.00645   0.06047
  32        2S          0.00038  -0.00157   0.00402  -0.00596   0.07092
  33 8   H  1S         -0.00101   0.00201   0.00341   0.00699   0.06047
  34        2S          0.00038  -0.00157   0.00315   0.00646   0.07092
                          11        12        13        14        15
                           O         O         O         V         V
     Eigenvalues --    -0.47391  -0.37843  -0.37843   0.12554   0.20490
   1 1   N  1S         -0.04229   0.00000   0.00000  -0.09497   0.00000
   2        2S          0.03079  -0.00000  -0.00000   0.04202  -0.00000
   3        2PX        -0.00000   0.03269  -0.00324  -0.00000  -0.04363
   4        2PY        -0.00000   0.00324   0.03269  -0.00000  -0.10040
   5        2PZ         0.23626  -0.00000  -0.00000   0.01519  -0.00000
   6        3S          0.21448   0.00000  -0.00000   0.83528  -0.00000
   7        3PX         0.00000   0.03022  -0.00300  -0.00000  -0.12014
   8        3PY        -0.00000   0.00300   0.03022  -0.00000  -0.27645
   9        3PZ         0.33169  -0.00000  -0.00000   0.08287  -0.00000
  10 2   H  1S         -0.02581  -0.01163   0.02570  -0.02738  -0.01026
  11        2S         -0.02630  -0.01573   0.03478  -0.11628   0.10745
  12 3   H  1S         -0.02581  -0.01644  -0.02292  -0.02738   0.01714
  13        2S         -0.02630  -0.02225  -0.03101  -0.11628  -0.17943
  14 4   H  1S         -0.02581   0.02807  -0.00278  -0.02738  -0.00688
  15        2S         -0.02630   0.03798  -0.00376  -0.11628   0.07198
  16 5   Al 1S         -0.03409  -0.00000   0.00000   0.00071  -0.00000
  17        2S          0.17502   0.00000  -0.00000   0.02076  -0.00000
  18        2PX         0.00000   0.14350  -0.01422   0.00000  -0.00128
  19        2PY         0.00000   0.01422   0.14350  -0.00000  -0.00294
  20        2PZ         0.07277  -0.00000  -0.00000  -0.07274   0.00000
  21        3S         -0.23283  -0.00000   0.00000   0.16724  -0.00000
  22        3PX        -0.00000  -0.26031   0.02580  -0.00000  -0.02445
  23        3PY        -0.00000  -0.02580  -0.26031   0.00000  -0.05627
  24        3PZ        -0.10710   0.00000   0.00000   0.02587   0.00000
  25        4S         -0.18662   0.00000   0.00000  -0.24890   0.00000
  26        4PX         0.00000  -0.11801   0.01170   0.00000   0.60328
  27        4PY        -0.00000  -0.01170  -0.11801  -0.00000   1.38818
  28        4PZ        -0.02213  -0.00000   0.00000   1.08017  -0.00000
  29 6   H  1S         -0.12867   0.22729  -0.02253  -0.00836   0.02538
  30        2S         -0.21385   0.43980  -0.04359  -0.08414   0.37088
  31 7   H  1S         -0.12867  -0.09413   0.20810  -0.00836   0.03789
  32        2S         -0.21385  -0.18215   0.40267  -0.08414   0.55363
  33 8   H  1S         -0.12867  -0.13315  -0.18557  -0.00836  -0.06327
  34        2S         -0.21385  -0.25765  -0.35908  -0.08414  -0.92451
                          16        17        18        19        20
                           V         V         V         V         V
     Eigenvalues --     0.20490   0.22188   0.29956   0.29956   0.34652
   1 1   N  1S          0.00000   0.09831  -0.00000  -0.00000   0.02723
   2        2S         -0.00000  -0.02702   0.00000   0.00000  -0.03575
   3        2PX        -0.10040   0.00000   0.12946  -0.23148   0.00000
   4        2PY         0.04363   0.00000   0.23148   0.12946  -0.00000
   5        2PZ         0.00000   0.12225  -0.00000  -0.00000  -0.06290
   6        3S         -0.00000  -1.07783   0.00000   0.00000  -0.18086
   7        3PX        -0.27645   0.00000   0.45826  -0.81936   0.00000
   8        3PY         0.12014   0.00000   0.81936   0.45826  -0.00000
   9        3PZ         0.00000   0.33123   0.00000  -0.00000  -0.03375
  10 2   H  1S          0.01387   0.03654  -0.05748  -0.09648  -0.00884
  11        2S         -0.14515   0.59327  -0.74655  -1.25322   0.14108
  12 3   H  1S          0.00196   0.03654   0.11230  -0.00153  -0.00884
  13        2S         -0.02048   0.59327   1.45860  -0.01992   0.14108
  14 4   H  1S         -0.01582   0.03654  -0.05482   0.09802  -0.00884
  15        2S          0.16563   0.59327  -0.71205   1.27314   0.14108
  16 5   Al 1S         -0.00000  -0.00194   0.00000   0.00000   0.06834
  17        2S          0.00000  -0.04038   0.00000  -0.00000  -0.20027
  18        2PX        -0.00294   0.00000  -0.02208   0.03948   0.00000
  19        2PY         0.00128  -0.00000  -0.03948  -0.02208   0.00000
  20        2PZ        -0.00000  -0.04269   0.00000   0.00000  -0.05758
  21        3S         -0.00000  -0.34625   0.00000   0.00000   1.68853
  22        3PX        -0.05627  -0.00000   0.07607  -0.13602  -0.00000
  23        3PY         0.02445  -0.00000   0.13602   0.07607  -0.00000
  24        3PZ         0.00000   0.10205  -0.00000  -0.00000   0.24699
  25        4S          0.00000   1.12047  -0.00000  -0.00000  -0.95779
  26        4PX         1.38818  -0.00000   0.25239  -0.45127   0.00000
  27        4PY        -0.60328   0.00000   0.45127   0.25239  -0.00000
  28        4PZ         0.00000   0.57260   0.00000   0.00000  -0.08292
  29 6   H  1S          0.05841  -0.05887   0.02007  -0.03589  -0.04005
  30        2S          0.85340  -0.46936   0.20256  -0.36217  -0.28757
  31 7   H  1S         -0.05119  -0.05887   0.02104   0.03532  -0.04005
  32        2S         -0.74789  -0.46936   0.21237   0.35650  -0.28757
  33 8   H  1S         -0.00722  -0.05887  -0.04111   0.00056  -0.04005
  34        2S         -0.10551  -0.46936  -0.41493   0.00567  -0.28757
                          21        22        23        24        25
                           V         V         V         V         V
     Eigenvalues --     0.37735   0.42702   0.42702   0.48301   1.12524
   1 1   N  1S         -0.03936   0.00000  -0.00000  -0.05609   0.00000
   2        2S         -0.00455  -0.00000   0.00000   0.05759  -0.00000
   3        2PX         0.00000  -0.04392  -0.06200  -0.00000  -0.00192
   4        2PY         0.00000  -0.06200   0.04392   0.00000  -0.08808
   5        2PZ        -0.23123   0.00000  -0.00000   0.10021   0.00000
   6        3S          0.63922  -0.00000   0.00000   0.45852   0.00000
   7        3PX         0.00000  -0.09434  -0.13319  -0.00000   0.01564
   8        3PY         0.00000  -0.13319   0.09434   0.00000   0.71719
   9        3PZ        -0.61845   0.00000  -0.00000   0.22909  -0.00000
  10 2   H  1S         -0.02942  -0.01458   0.03171   0.03863  -0.94265
  11        2S         -0.78847   0.13264  -0.28851  -0.39481   0.61972
  12 3   H  1S         -0.02942   0.03476  -0.00323   0.03863   0.96668
  13        2S         -0.78847  -0.31617   0.02939  -0.39481  -0.63552
  14 4   H  1S         -0.02942  -0.02018  -0.02848   0.03863  -0.02404
  15        2S         -0.78847   0.18354   0.25912  -0.39481   0.01580
  16 5   Al 1S          0.01435   0.00000   0.00000  -0.01590   0.00000
  17        2S         -0.18213   0.00000  -0.00000   0.02353   0.00000
  18        2PX         0.00000  -0.18414  -0.25996  -0.00000   0.00077
  19        2PY        -0.00000  -0.25996   0.18414   0.00000   0.03529
  20        2PZ         0.05881  -0.00000   0.00000  -0.34191   0.00000
  21        3S         -0.52593   0.00000   0.00000  -0.55572   0.00000
  22        3PX        -0.00000   0.82472   1.16434   0.00000  -0.00357
  23        3PY         0.00000   1.16434  -0.82472  -0.00000  -0.16363
  24        3PZ        -0.11840   0.00000  -0.00000   1.53064  -0.00000
  25        4S          2.57074  -0.00000   0.00000   0.72551  -0.00000
  26        4PX         0.00000  -0.34293  -0.48415  -0.00000  -0.00756
  27        4PY        -0.00000  -0.48415   0.34293   0.00000  -0.34667
  28        4PZ        -0.55633  -0.00000  -0.00000  -1.21428  -0.00000
  29 6   H  1S         -0.08131  -0.00396  -0.00559  -0.00310   0.00067
  30        2S         -0.76262   0.33054   0.46666  -0.12473  -0.00601
  31 7   H  1S         -0.08131  -0.00286   0.00622  -0.00310   0.02633
  32        2S         -0.76262   0.23887  -0.51958  -0.12473  -0.23575
  33 8   H  1S         -0.08131   0.00682  -0.00063  -0.00310  -0.02700
  34        2S         -0.76262  -0.56941   0.05293  -0.12473   0.24176
                          26        27        28        29        30
                           V         V         V         V         V
     Eigenvalues --     1.12524   1.23851   1.39737   1.39737   1.44016
   1 1   N  1S         -0.00000   0.10242   0.00000   0.00000  -0.00120
   2        2S          0.00000  -0.15918  -0.00000  -0.00000   0.04902
   3        2PX         0.08808   0.00000  -0.31259  -0.52325  -0.00000
   4        2PY        -0.00192   0.00000  -0.52325   0.31259  -0.00000
   5        2PZ        -0.00000  -0.19604   0.00000  -0.00000  -0.41976
   6        3S          0.00000  -0.20245  -0.00000  -0.00000  -0.15444
   7        3PX        -0.71719  -0.00000   0.36713   0.61453   0.00000
   8        3PY         0.01564  -0.00000   0.61453  -0.36713   0.00000
   9        3PZ         0.00000   0.52108   0.00000   0.00000   0.39293
  10 2   H  1S         -0.57199   0.78007   0.05260  -0.09433  -0.03549
  11        2S          0.37604  -0.34376  -0.17546   0.31465   0.00222
  12 3   H  1S         -0.53036   0.78007  -0.10799   0.00161  -0.03549
  13        2S          0.34867  -0.34376   0.36023  -0.00537   0.00222
  14 4   H  1S          1.10235   0.78007   0.05539   0.09272  -0.03549
  15        2S         -0.72472  -0.34376  -0.18477  -0.30928   0.00222
  16 5   Al 1S          0.00000   0.00198   0.00000  -0.00000  -0.01435
  17        2S          0.00000  -0.02023  -0.00000  -0.00000   0.05509
  18        2PX        -0.03529   0.00000  -0.03059  -0.05120  -0.00000
  19        2PY         0.00077  -0.00000  -0.05120   0.03059   0.00000
  20        2PZ         0.00000   0.01704  -0.00000  -0.00000   0.00624
  21        3S          0.00000  -0.07772   0.00000  -0.00000  -0.22620
  22        3PX         0.16363   0.00000   0.00851   0.01424  -0.00000
  23        3PY        -0.00357   0.00000   0.01424  -0.00851  -0.00000
  24        3PZ        -0.00000   0.01882  -0.00000   0.00000   0.14974
  25        4S         -0.00000   0.09093  -0.00000  -0.00000   1.23025
  26        4PX         0.34667   0.00000  -0.28546  -0.47783  -0.00000
  27        4PY        -0.00756   0.00000  -0.47783   0.28546  -0.00000
  28        4PZ         0.00000  -0.07463  -0.00000   0.00000   0.02856
  29 6   H  1S         -0.03079  -0.02144   0.48161   0.80617   0.74344
  30        2S          0.27569   0.01340  -0.57679  -0.96549  -1.02064
  31 7   H  1S          0.01598  -0.02144   0.45735  -0.82017   0.74344
  32        2S         -0.14305   0.01340  -0.54774   0.98226  -1.02064
  33 8   H  1S          0.01481  -0.02144  -0.93897   0.01401   0.74344
  34        2S         -0.13264   0.01340   1.12453  -0.01677  -1.02064
                          31        32        33        34
                           V         V         V         V
     Eigenvalues --     1.51235   1.51235   1.53820   2.58630
   1 1   N  1S          0.00000   0.00000   0.01285   0.01759
   2        2S          0.00000  -0.00000  -0.07897  -1.82817
   3        2PX        -0.26924  -0.88939  -0.00000   0.00000
   4        2PY        -0.88939   0.26924   0.00000  -0.00000
   5        2PZ         0.00000  -0.00000   0.99805  -0.00612
   6        3S          0.00000  -0.00000   0.32782   2.70494
   7        3PX         0.36124   1.19330   0.00000  -0.00000
   8        3PY         1.19330  -0.36124  -0.00000   0.00000
   9        3PZ        -0.00000   0.00000  -1.36689  -0.17667
  10 2   H  1S          0.09685  -0.10329   0.17383  -0.25549
  11        2S         -0.59956   0.63941  -0.56467  -0.44344
  12 3   H  1S         -0.13788  -0.03223   0.17383  -0.25549
  13        2S          0.85352   0.19953  -0.56467  -0.44344
  14 4   H  1S          0.04102   0.13552   0.17383  -0.25549
  15        2S         -0.25397  -0.83894  -0.56467  -0.44344
  16 5   Al 1S          0.00000   0.00000   0.00455  -0.00992
  17        2S         -0.00000   0.00000  -0.05106   0.03725
  18        2PX         0.01993   0.06583   0.00000  -0.00000
  19        2PY         0.06583  -0.01993  -0.00000   0.00000
  20        2PZ         0.00000  -0.00000   0.04028  -0.05956
  21        3S          0.00000   0.00000   0.02545  -0.25732
  22        3PX        -0.04900  -0.16186  -0.00000   0.00000
  23        3PY        -0.16186   0.04900   0.00000  -0.00000
  24        3PZ        -0.00000   0.00000  -0.30933   0.35750
  25        4S         -0.00000  -0.00000   1.46270   0.01164
  26        4PX         0.11319   0.37391   0.00000  -0.00000
  27        4PY         0.37391  -0.11319  -0.00000   0.00000
  28        4PZ        -0.00000   0.00000  -0.26206  -0.15932
  29 6   H  1S         -0.18282  -0.60392   0.32977   0.00302
  30        2S          0.20657   0.68236  -0.72123   0.04761
  31 7   H  1S         -0.43160   0.46029   0.32977   0.00302
  32        2S          0.48766  -0.52008  -0.72123   0.04761
  33 8   H  1S          0.61442   0.14363   0.32977   0.00302
  34        2S         -0.69423  -0.16229  -0.72123   0.04761
     Density Matrix:
                           1         2         3         4         5
   1 1   N  1S          2.04645
   2        2S          0.10361   0.10182
   3        2PX        -0.00000  -0.00000   0.31685
   4        2PY        -0.00000  -0.00000  -0.00000   0.31685
   5        2PZ        -0.02270   0.00899  -0.00000  -0.00000   0.39681
   6        3S         -0.43647   0.28413   0.00000   0.00000   0.14386
   7        3PX         0.00000   0.00000   0.30602   0.00000  -0.00000
   8        3PY         0.00000  -0.00000  -0.00000   0.30602  -0.00000
   9        3PZ        -0.02789   0.02113  -0.00000   0.00000   0.49934
  10 2   H  1S         -0.04185   0.04207  -0.10161   0.17599  -0.06569
  11        2S          0.02053   0.00055  -0.06797   0.11773  -0.05575
  12 3   H  1S         -0.04185   0.04207  -0.10161  -0.17599  -0.06569
  13        2S          0.02053   0.00055  -0.06797  -0.11773  -0.05575
  14 4   H  1S         -0.04185   0.04207   0.20321   0.00000  -0.06569
  15        2S          0.02053   0.00055   0.13594   0.00000  -0.05575
  16 5   Al 1S         -0.00145  -0.00420  -0.00000   0.00000   0.00653
  17        2S          0.00476   0.00504  -0.00000   0.00000  -0.03674
  18        2PX        -0.00000   0.00000   0.00191  -0.00000   0.00000
  19        2PY         0.00000  -0.00000   0.00000   0.00191  -0.00000
  20        2PZ        -0.01688   0.00385   0.00000  -0.00000   0.06796
  21        3S          0.00990   0.00057  -0.00000   0.00000   0.03994
  22        3PX         0.00000   0.00000  -0.00455   0.00000  -0.00000
  23        3PY        -0.00000   0.00000  -0.00000  -0.00455   0.00000
  24        3PZ         0.00445  -0.01306  -0.00000   0.00000  -0.08437
  25        4S         -0.00431   0.00275   0.00000  -0.00000   0.02984
  26        4PX        -0.00000   0.00000   0.00224   0.00000   0.00000
  27        4PY         0.00000  -0.00000  -0.00000   0.00224  -0.00000
  28        4PZ         0.01385  -0.00625   0.00000   0.00000  -0.03386
  29 6   H  1S          0.00639  -0.00464   0.00885  -0.00000  -0.01578
  30        2S          0.01336  -0.01100   0.02335  -0.00000  -0.04784
  31 7   H  1S          0.00639  -0.00464  -0.00443   0.00767  -0.01578
  32        2S          0.01336  -0.01100  -0.01167   0.02022  -0.04784
  33 8   H  1S          0.00639  -0.00464  -0.00443  -0.00767  -0.01578
  34        2S          0.01336  -0.01100  -0.01167  -0.02022  -0.04784
                           6         7         8         9        10
   6        3S          1.10135
   7        3PX         0.00000   0.29572
   8        3PY        -0.00000   0.00000   0.29572
   9        3PZ         0.21633  -0.00000  -0.00000   0.63259
  10 2   H  1S          0.13004  -0.09811   0.16994  -0.07800   0.16419
  11        2S         -0.02082  -0.06558   0.11358  -0.06962   0.09680
  12 3   H  1S          0.13004  -0.09811  -0.16994  -0.07800  -0.03146
  13        2S         -0.02082  -0.06558  -0.11358  -0.06962  -0.03451
  14 4   H  1S          0.13004   0.19623   0.00000  -0.07800  -0.03146
  15        2S         -0.02082   0.13115   0.00000  -0.06962  -0.03451
  16 5   Al 1S          0.01388   0.00000  -0.00000   0.01601  -0.00226
  17        2S         -0.02933   0.00000   0.00000  -0.04682   0.00674
  18        2PX         0.00000  -0.01639  -0.00000   0.00000  -0.00246
  19        2PY         0.00000   0.00000  -0.01639  -0.00000   0.00426
  20        2PZ         0.11127  -0.00000  -0.00000   0.10677  -0.00745
  21        3S         -0.02455  -0.00000   0.00000   0.02519  -0.00742
  22        3PX        -0.00000  -0.00528   0.00000  -0.00000   0.00326
  23        3PY         0.00000  -0.00000  -0.00528   0.00000  -0.00565
  24        3PZ        -0.06408  -0.00000   0.00000  -0.11027   0.00892
  25        4S         -0.00194   0.00000  -0.00000   0.02000  -0.00367
  26        4PX         0.00000   0.00295   0.00000   0.00000   0.00016
  27        4PY        -0.00000  -0.00000   0.00295  -0.00000  -0.00027
  28        4PZ        -0.03674   0.00000   0.00000  -0.04397   0.00235
  29 6   H  1S         -0.03390   0.00784  -0.00000  -0.03089  -0.00411
  30        2S         -0.07211   0.02128  -0.00000  -0.07763  -0.00787
  31 7   H  1S         -0.03390  -0.00392   0.00679  -0.03089   0.00933
  32        2S         -0.07211  -0.01064   0.01843  -0.07763   0.02408
  33 8   H  1S         -0.03390  -0.00392  -0.00679  -0.03089  -0.00411
  34        2S         -0.07211  -0.01064  -0.01843  -0.07763  -0.00787
                          11        12        13        14        15
  11        2S          0.06775
  12 3   H  1S         -0.03451   0.16419
  13        2S         -0.02154   0.09680   0.06775
  14 4   H  1S         -0.03451  -0.03146  -0.03451   0.16419
  15        2S         -0.02154  -0.03451  -0.02154   0.09680   0.06775
  16 5   Al 1S         -0.00330  -0.00226  -0.00330  -0.00226  -0.00330
  17        2S          0.01574   0.00674   0.01574   0.00674   0.01574
  18        2PX        -0.00779  -0.00246  -0.00779   0.00492   0.01559
  19        2PY         0.01350  -0.00426  -0.01350   0.00000   0.00000
  20        2PZ        -0.02140  -0.00745  -0.02140  -0.00745  -0.02140
  21        3S         -0.00986  -0.00742  -0.00986  -0.00742  -0.00986
  22        3PX         0.00695   0.00326   0.00695  -0.00652  -0.01391
  23        3PY        -0.01205   0.00565   0.01205  -0.00000   0.00000
  24        3PZ         0.00945   0.00892   0.00945   0.00892   0.00945
  25        4S         -0.00847  -0.00367  -0.00847  -0.00367  -0.00847
  26        4PX         0.00250   0.00016   0.00250  -0.00031  -0.00500
  27        4PY        -0.00433   0.00027   0.00433  -0.00000   0.00000
  28        4PZ         0.00528   0.00235   0.00528   0.00235   0.00528
  29 6   H  1S         -0.00753  -0.00411  -0.00753   0.00933   0.01477
  30        2S         -0.01256  -0.00787  -0.01256   0.02408   0.03448
  31 7   H  1S          0.01477  -0.00411  -0.00753  -0.00411  -0.00753
  32        2S          0.03448  -0.00787  -0.01256  -0.00787  -0.01256
  33 8   H  1S         -0.00753   0.00933   0.01477  -0.00411  -0.00753
  34        2S         -0.01256   0.02408   0.03448  -0.00787  -0.01256
                          16        17        18        19        20
  16 5   Al 1S          2.12031
  17        2S         -0.50975   2.16348
  18        2PX        -0.00000   0.00000   1.95630
  19        2PY         0.00000   0.00000   0.00000   1.95630
  20        2PZ        -0.00298   0.01197   0.00000   0.00000   1.92626
  21        3S         -0.04601   0.03844  -0.00000   0.00000  -0.02741
  22        3PX         0.00000  -0.00000   0.09641  -0.00000  -0.00000
  23        3PY         0.00000  -0.00000   0.00000   0.09641   0.00000
  24        3PZ         0.01037  -0.03527  -0.00000   0.00000   0.16565
  25        4S          0.04388  -0.18222   0.00000   0.00000  -0.00531
  26        4PX         0.00000   0.00000  -0.08398   0.00000   0.00000
  27        4PY        -0.00000   0.00000  -0.00000  -0.08398   0.00000
  28        4PZ        -0.00275   0.01136  -0.00000  -0.00000  -0.07537
  29 6   H  1S          0.01560  -0.07093   0.07582   0.00000  -0.01472
  30        2S          0.02260  -0.10162   0.13480  -0.00000  -0.02353
  31 7   H  1S          0.01560  -0.07093  -0.03791   0.06566  -0.01472
  32        2S          0.02260  -0.10162  -0.06740   0.11674  -0.02353
  33 8   H  1S          0.01560  -0.07093  -0.03791  -0.06566  -0.01472
  34        2S          0.02260  -0.10162  -0.06740  -0.11674  -0.02353
                          21        22        23        24        25
  21        3S          0.20796
  22        3PX         0.00000   0.15284
  23        3PY        -0.00000  -0.00000   0.15284
  24        3PZ         0.02854   0.00000  -0.00000   0.04548
  25        4S          0.14639  -0.00000  -0.00000   0.02593   0.12409
  26        4PX        -0.00000   0.05799  -0.00000  -0.00000  -0.00000
  27        4PY        -0.00000   0.00000   0.05799   0.00000  -0.00000
  28        4PZ        -0.00201   0.00000  -0.00000   0.00115  -0.00320
  29 6   H  1S          0.08384  -0.11886   0.00000   0.02184   0.06772
  30        2S          0.12782  -0.23080  -0.00000   0.03942   0.10266
  31 7   H  1S          0.08384   0.05943  -0.10293   0.02184   0.06772
  32        2S          0.12782   0.11540  -0.19987   0.03942   0.10266
  33 8   H  1S          0.08384   0.05943   0.10293   0.02184   0.06772
  34        2S          0.12782   0.11540   0.19987   0.03942   0.10266
                          26        27        28        29        30
  26        4PX         0.02973
  27        4PY        -0.00000   0.02973
  28        4PZ        -0.00000   0.00000   0.00589
  29 6   H  1S         -0.05462  -0.00000   0.00172   0.14495
  30        2S         -0.10518  -0.00000   0.00479   0.26564   0.49231
  31 7   H  1S          0.02731  -0.04730   0.00172  -0.01180  -0.03740
  32        2S          0.05259  -0.09109   0.00479  -0.03740  -0.09385
  33 8   H  1S          0.02731   0.04730   0.00172  -0.01180  -0.03740
  34        2S          0.05259   0.09109   0.00479  -0.03740  -0.09385
                          31        32        33        34
  31 7   H  1S          0.14495
  32        2S          0.26564   0.49231
  33 8   H  1S         -0.01180  -0.03740   0.14495
  34        2S         -0.03740  -0.09385   0.26564   0.49231
    Full Mulliken population analysis:
                           1         2         3         4         5
   1 1   N  1S          2.04645
   2        2S          0.02019   0.10182
   3        2PX         0.00000   0.00000   0.31685
   4        2PY         0.00000   0.00000  -0.00000   0.31685
   5        2PZ         0.00000   0.00000   0.00000   0.00000   0.39681
   6        3S         -0.08041   0.21372   0.00000   0.00000   0.00000
   7        3PX         0.00000   0.00000   0.15790   0.00000   0.00000
   8        3PY         0.00000   0.00000   0.00000   0.15790   0.00000
   9        3PZ         0.00000   0.00000   0.00000   0.00000   0.25766
  10 2   H  1S         -0.00091   0.00744   0.01175   0.03524   0.00541
  11        2S          0.00144   0.00019   0.00522   0.01565   0.00305
  12 3   H  1S         -0.00091   0.00744   0.01175   0.03524   0.00541
  13        2S          0.00144   0.00019   0.00522   0.01565   0.00305
  14 4   H  1S         -0.00091   0.00744   0.04699   0.00000   0.00541
  15        2S          0.00144   0.00019   0.02087   0.00000   0.00305
  16 5   Al 1S          0.00000  -0.00000   0.00000   0.00000   0.00000
  17        2S          0.00000   0.00000   0.00000   0.00000  -0.00000
  18        2PX         0.00000   0.00000   0.00000   0.00000   0.00000
  19        2PY         0.00000   0.00000   0.00000   0.00000   0.00000
  20        2PZ         0.00000  -0.00000   0.00000   0.00000  -0.00002
  21        3S          0.00009   0.00003   0.00000   0.00000   0.00238
  22        3PX         0.00000   0.00000  -0.00013  -0.00000   0.00000
  23        3PY         0.00000   0.00000  -0.00000  -0.00013   0.00000
  24        3PZ        -0.00011   0.00189   0.00000   0.00000   0.01003
  25        4S         -0.00010   0.00036   0.00000   0.00000   0.00141
  26        4PX         0.00000   0.00000   0.00011   0.00000   0.00000
  27        4PY         0.00000   0.00000   0.00000   0.00011   0.00000
  28        4PZ        -0.00065   0.00152   0.00000   0.00000   0.00133
  29 6   H  1S          0.00000  -0.00000  -0.00000  -0.00000  -0.00000
  30        2S          0.00001  -0.00008  -0.00011   0.00000  -0.00034
  31 7   H  1S          0.00000  -0.00000  -0.00000  -0.00000  -0.00000
  32        2S          0.00001  -0.00008  -0.00003  -0.00009  -0.00034
  33 8   H  1S          0.00000  -0.00000  -0.00000  -0.00000  -0.00000
  34        2S          0.00001  -0.00008  -0.00003  -0.00009  -0.00034
                           6         7         8         9        10
   6        3S          1.10135
   7        3PX         0.00000   0.29572
   8        3PY         0.00000   0.00000   0.29572
   9        3PZ         0.00000   0.00000   0.00000   0.63259
  10 2   H  1S          0.04657   0.02538   0.07614   0.01438   0.16419
  11        2S         -0.01339   0.01587   0.04760   0.01200   0.06252
  12 3   H  1S          0.04657   0.02538   0.07614   0.01438  -0.00047
  13        2S         -0.01339   0.01587   0.04760   0.01200  -0.00513
  14 4   H  1S          0.04657   0.10151   0.00000   0.01438  -0.00047
  15        2S         -0.01339   0.06347   0.00000   0.01200  -0.00513
  16 5   Al 1S          0.00002   0.00000   0.00000   0.00007  -0.00000
  17        2S         -0.00043   0.00000   0.00000  -0.00241   0.00000
  18        2PX         0.00000  -0.00012   0.00000   0.00000   0.00000
  19        2PY         0.00000   0.00000  -0.00012   0.00000   0.00000
  20        2PZ        -0.00165   0.00000   0.00000  -0.00491   0.00000
  21        3S         -0.00463   0.00000   0.00000   0.00780  -0.00012
  22        3PX         0.00000  -0.00085   0.00000   0.00000  -0.00003
  23        3PY         0.00000   0.00000  -0.00085   0.00000  -0.00009
  24        3PZ         0.02132   0.00000   0.00000   0.04561  -0.00040
  25        4S         -0.00061   0.00000   0.00000   0.00474  -0.00032
  26        4PX         0.00000   0.00072   0.00000   0.00000  -0.00001
  27        4PY         0.00000   0.00000   0.00072   0.00000  -0.00002
  28        4PZ         0.01833   0.00000   0.00000   0.00598  -0.00043
  29 6   H  1S         -0.00006  -0.00003  -0.00000  -0.00019  -0.00000
  30        2S         -0.00289  -0.00107   0.00000  -0.00575  -0.00004
  31 7   H  1S         -0.00006  -0.00001  -0.00003  -0.00019   0.00000
  32        2S         -0.00289  -0.00027  -0.00081  -0.00575   0.00001
  33 8   H  1S         -0.00006  -0.00001  -0.00003  -0.00019  -0.00000
  34        2S         -0.00289  -0.00027  -0.00081  -0.00575  -0.00004
                          11        12        13        14        15
  11        2S          0.06775
  12 3   H  1S         -0.00513   0.16419
  13        2S         -0.00884   0.06252   0.06775
  14 4   H  1S         -0.00513  -0.00047  -0.00513   0.16419
  15        2S         -0.00884  -0.00513  -0.00884   0.06252   0.06775
  16 5   Al 1S         -0.00000  -0.00000  -0.00000  -0.00000  -0.00000
  17        2S          0.00014   0.00000   0.00014   0.00000   0.00014
  18        2PX         0.00001   0.00000   0.00001   0.00000   0.00004
  19        2PY         0.00003   0.00000   0.00003   0.00000   0.00000
  20        2PZ         0.00015   0.00000   0.00015   0.00000   0.00015
  21        3S         -0.00115  -0.00012  -0.00115  -0.00012  -0.00115
  22        3PX        -0.00027  -0.00003  -0.00027  -0.00012  -0.00108
  23        3PY        -0.00081  -0.00009  -0.00081  -0.00000   0.00000
  24        3PZ        -0.00184  -0.00040  -0.00184  -0.00040  -0.00184
  25        4S         -0.00227  -0.00032  -0.00227  -0.00032  -0.00227
  26        4PX        -0.00023  -0.00001  -0.00023  -0.00002  -0.00090
  27        4PY        -0.00068  -0.00002  -0.00068  -0.00000   0.00000
  28        4PZ        -0.00239  -0.00043  -0.00239  -0.00043  -0.00239
  29 6   H  1S         -0.00004  -0.00000  -0.00004   0.00000   0.00001
  30        2S         -0.00064  -0.00004  -0.00064   0.00001   0.00040
  31 7   H  1S          0.00001  -0.00000  -0.00004  -0.00000  -0.00004
  32        2S          0.00040  -0.00004  -0.00064  -0.00004  -0.00064
  33 8   H  1S         -0.00004   0.00000   0.00001  -0.00000  -0.00004
  34        2S         -0.00064   0.00001   0.00040  -0.00004  -0.00064
                          16        17        18        19        20
  16 5   Al 1S          2.12031
  17        2S         -0.12286   2.16348
  18        2PX         0.00000   0.00000   1.95630
  19        2PY         0.00000   0.00000   0.00000   1.95630
  20        2PZ         0.00000   0.00000   0.00000   0.00000   1.92626
  21        3S         -0.00056   0.00983   0.00000   0.00000   0.00000
  22        3PX         0.00000   0.00000   0.02330   0.00000   0.00000
  23        3PY         0.00000   0.00000   0.00000   0.02330   0.00000
  24        3PZ         0.00000   0.00000   0.00000   0.00000   0.04003
  25        4S          0.00111  -0.03977   0.00000   0.00000   0.00000
  26        4PX         0.00000   0.00000  -0.00494   0.00000   0.00000
  27        4PY         0.00000   0.00000   0.00000  -0.00494   0.00000
  28        4PZ         0.00000   0.00000   0.00000   0.00000  -0.00443
  29 6   H  1S          0.00000  -0.00029  -0.00054  -0.00000  -0.00002
  30        2S          0.00023  -0.00937  -0.00686   0.00000  -0.00022
  31 7   H  1S          0.00000  -0.00029  -0.00014  -0.00041  -0.00002
  32        2S          0.00023  -0.00937  -0.00172  -0.00515  -0.00022
  33 8   H  1S          0.00000  -0.00029  -0.00014  -0.00041  -0.00002
  34        2S          0.00023  -0.00937  -0.00172  -0.00515  -0.00022
                          21        22        23        24        25
  21        3S          0.20796
  22        3PX         0.00000   0.15284
  23        3PY         0.00000   0.00000   0.15284
  24        3PZ         0.00000   0.00000   0.00000   0.04548
  25        4S          0.12088   0.00000   0.00000   0.00000   0.12409
  26        4PX         0.00000   0.03852   0.00000   0.00000   0.00000
  27        4PY         0.00000   0.00000   0.03852   0.00000   0.00000
  28        4PZ         0.00000   0.00000   0.00000   0.00076   0.00000
  29 6   H  1S          0.01406   0.03715   0.00000   0.00124   0.01363
  30        2S          0.05516   0.11881  -0.00000   0.00370   0.05396
  31 7   H  1S          0.01406   0.00929   0.02786   0.00124   0.01363
  32        2S          0.05516   0.02970   0.08911   0.00370   0.05396
  33 8   H  1S          0.01406   0.00929   0.02786   0.00124   0.01363
  34        2S          0.05516   0.02970   0.08911   0.00370   0.05396
                          26        27        28        29        30
  26        4PX         0.02973
  27        4PY        -0.00000   0.02973
  28        4PZ         0.00000   0.00000   0.00589
  29 6   H  1S          0.01558   0.00000   0.00009   0.14495
  30        2S          0.06243   0.00000   0.00052   0.17158   0.49231
  31 7   H  1S          0.00390   0.01169   0.00009  -0.00000  -0.00040
  32        2S          0.01561   0.04682   0.00052  -0.00040  -0.00775
  33 8   H  1S          0.00390   0.01169   0.00009  -0.00000  -0.00040
  34        2S          0.01561   0.04682   0.00052  -0.00040  -0.00775
                          31        32        33        34
  31 7   H  1S          0.14495
  32        2S          0.17158   0.49231
  33 8   H  1S         -0.00000  -0.00040   0.14495
  34        2S         -0.00040  -0.00775   0.17158   0.49231
     Gross orbital populations:
                           1
   1 1   N  1S          1.98708
   2        2S          0.36218
   3        2PX         0.57636
   4        2PY         0.57636
   5        2PZ         0.69396
   6        3S          1.35770
   7        3PX         0.69918
   8        3PY         0.69918
   9        3PZ         1.00845
  10 2   H  1S          0.43541
  11        2S          0.17970
  12 3   H  1S          0.43541
  13        2S          0.17970
  14 4   H  1S          0.43541
  15        2S          0.17970
  16 5   Al 1S          1.99877
  17        2S          1.97926
  18        2PX         1.96350
  19        2PY         1.96350
  20        2PZ         1.95502
  21        3S          0.54761
  22        3PX         0.44581
  23        3PY         0.44581
  24        3PZ         0.17311
  25        4S          0.40711
  26        4PX         0.17975
  27        4PY         0.17975
  28        4PZ         0.02210
  29 6   H  1S          0.39629
  30        2S          0.91475
  31 7   H  1S          0.39629
  32        2S          0.91475
  33 8   H  1S          0.39629
  34        2S          0.91475
          Condensed to atoms (all electrons):
               1          2          3          4          5          6
     1  N    6.958112   0.309026   0.309026   0.309026   0.106853  -0.010530
     2  H    0.309026   0.356982  -0.019575  -0.019575  -0.010729  -0.000714
     3  H    0.309026  -0.019575   0.356982  -0.019575  -0.010729  -0.000714
     4  H    0.309026  -0.019575  -0.019575   0.356982  -0.010729   0.000412
     5  Al   0.106853  -0.010729  -0.010729  -0.010729  11.108691   0.359251
     6  H   -0.010530  -0.000714  -0.000714   0.000412   0.359251   0.980421
     7  H   -0.010530   0.000412  -0.000714  -0.000714   0.359251  -0.008547
     8  H   -0.010530  -0.000714   0.000412  -0.000714   0.359251  -0.008547
               7          8
     1  N   -0.010530  -0.010530
     2  H    0.000412  -0.000714
     3  H   -0.000714   0.000412
     4  H   -0.000714  -0.000714
     5  Al   0.359251   0.359251
     6  H   -0.008547  -0.008547
     7  H    0.980421  -0.008547
     8  H   -0.008547   0.980421
 Mulliken charges:
               1
     1  N   -0.960453
     2  H    0.384886
     3  H    0.384886
     4  H    0.384886
     5  Al   0.738889
     6  H   -0.311031
     7  H   -0.311031
     8  H   -0.311031
 Sum of Mulliken charges =   0.00000
 Mulliken charges with hydrogens summed into heavy atoms:
               1
     1  N    0.194205
     5  Al  -0.194205
 Electronic spatial extent (au):  <R**2>=            197.9028
 Charge=              0.0000 electrons
 Dipole moment (field-independent basis, Debye):
    X=              0.0000    Y=             -0.0000    Z=             -6.1545  Tot=              6.1545
 Quadrupole moment (field-independent basis, Debye-Ang):
   XX=            -26.3656   YY=            -26.3656   ZZ=            -18.0297
   XY=              0.0000   XZ=              0.0000   YZ=             -0.0000
 Traceless Quadrupole moment (field-independent basis, Debye-Ang):
   XX=             -2.7786   YY=             -2.7786   ZZ=              5.5573
   XY=              0.0000   XZ=              0.0000   YZ=             -0.0000
 Octapole moment (field-independent basis, Debye-Ang**2):
  XXX=              6.1568  YYY=             -0.0000  ZZZ=            -23.7386  XYY=             -6.1568
  XXY=              0.0000  XXZ=            -14.6241  XZZ=              0.0000  YZZ=             -0.0000
  YYZ=            -14.6241  XYZ=             -0.0000
 Hexadecapole moment (field-independent basis, Debye-Ang**3):
 XXXX=            -81.3873 YYYY=            -81.3873 ZZZZ=           -155.7656 XXXY=              0.0000
 XXXZ=              3.1309 YYYX=             -0.0000 YYYZ=              0.0000 ZZZX=              0.0000
 ZZZY=              0.0000 XXYY=            -27.1291 XXZZ=            -42.8631 YYZZ=            -42.8631
 XXYZ=             -0.0000 YYXZ=             -3.1309 ZZXY=              0.0000
 N-N= 6.221900225184D+01 E-N=-8.339374111025D+02  KE= 2.976894479884D+02
 Orbital energies and kinetic energies (alpha):
                                 1                 2
   1         O               -58.009642         78.661325
   2         O               -15.569945         21.914937
   3         O                -4.816249         11.066760
   4         O                -3.120233          9.723043
   5         O                -3.120233          9.723043
   6         O                -3.120029          9.706175
   7         O                -1.249192          1.848636
   8         O                -0.732457          1.308597
   9         O                -0.732457          1.308597
  10         O                -0.618468          1.308826
  11         O                -0.473909          0.998129
  12         O                -0.378425          0.638328
  13         O                -0.378425          0.638328
  14         V                 0.125538          0.577649
  15         V                 0.204901          0.394236
  16         V                 0.204901          0.394236
  17         V                 0.221877          0.799166
  18         V                 0.299559          0.999914
  19         V                 0.299559          0.999914
  20         V                 0.346516          1.456342
  21         V                 0.377352          1.002625
  22         V                 0.427021          1.526170
  23         V                 0.427021          1.526170
  24         V                 0.483011          1.909504
  25         V                 1.125238          2.147924
  26         V                 1.125238          2.147924
  27         V                 1.238511          2.781714
  28         V                 1.397368          2.868451
  29         V                 1.397368          2.868451
  30         V                 1.440164          2.597986
  31         V                 1.512352          3.672235
  32         V                 1.512352          3.672235
  33         V                 1.538195          3.801965
  34         V                 2.586299          4.740141
 Total kinetic energy from orbitals= 2.976894479884D+02
 1\1\GINC-IISERK51\SP\RHF\3-21G\Al1H6N1\GAUSSIAN\16-Jun-2025\0\\# hf/3-
 21g pop=full geom=connectivity\\Title Card Required\\0,1\N,0,0.,0.,-1.
 254501\H,0,0.824896,0.476254,-1.593899\H,0,-0.824896,0.476254,-1.59389
 9\H,0,0.,-0.952508,-1.593899\Al,0,0.,0.,0.793242\H,0,0.,1.594107,1.083
 684\H,0,-1.380537,-0.797053,1.083684\H,0,1.380537,-0.797053,1.083684\\
 Version=EM64L-G16RevB.01\State=1-A\HF=-298.2246456\RMSD=8.191e-09\Dipo
 le=0.,0.,-2.4213507\Quadrupole=-2.0658507,-2.0658507,4.1317014,0.,0.,0
 .\PG=C03 [C3(N1Al1),X(H6)]\\@


 ERROR IS A HARDY PLANT... IT FLOURISHETH IN EVERY SOIL.
            MARTIN FARQUHAR TUPPER
 Job cpu time:       0 days  0 hours  0 minutes  0.4 seconds.
 Elapsed time:       0 days  0 hours  0 minutes  0.4 seconds.
 File lengths (MBytes):  RWF=      6 Int=      0 D2E=      0 Chk=      1 Scr=      1
 Normal termination of Gaussian 16 at Mon Jun 16 21:57:14 2025.
