 Entering Gaussian System, Link 0=g16
 Input=/home/gaussian/Documents/Summer_Internship/Acid_Base_adduct/Adduct/NH3 - AlH3/NH3_AlH3_opt.com
 Output=/home/gaussian/Documents/Summer_Internship/Acid_Base_adduct/Adduct/NH3 - AlH3/NH3_AlH3_opt.log
 Initial command:
 /usr/local/g16/l1.exe "/home/gaussian/tmp/Gau-79582.inp" -scrdir="/home/gaussian/tmp/"
 Entering Link 1 = /usr/local/g16/l1.exe PID=     79585.
  
 Copyright (c) 1988-2017, Gaussian, Inc.  All Rights Reserved.
  
 This is part of the Gaussian(R) 16 program.  It is based on
 the Gaussian(R) 09 system (copyright 2009, Gaussian, Inc.),
 the Gaussian(R) 03 system (copyright 2003, Gaussian, Inc.),
 the Gaussian(R) 98 system (copyright 1998, Gaussian, Inc.),
 the Gaussian(R) 94 system (copyright 1995, Gaussian, Inc.),
 the Gaussian 92(TM) system (copyright 1992, Gaussian, Inc.),
 the Gaussian 90(TM) system (copyright 1990, Gaussian, Inc.),
 the Gaussian 88(TM) system (copyright 1988, Gaussian, Inc.),
 the Gaussian 86(TM) system (copyright 1986, Carnegie Mellon
 University), and the Gaussian 82(TM) system (copyright 1983,
 Carnegie Mellon University). Gaussian is a federally registered
 trademark of Gaussian, Inc.
  
 This software contains proprietary and confidential information,
 including trade secrets, belonging to Gaussian, Inc.
  
 This software is provided under written license and may be
 used, copied, transmitted, or stored only in accord with that
 written license.
  
 The following legend is applicable only to US Government
 contracts under FAR:
  
                    RESTRICTED RIGHTS LEGEND
  
 Use, reproduction and disclosure by the US Government is
 subject to restrictions as set forth in subparagraphs (a)
 and (c) of the Commercial Computer Software - Restricted
 Rights clause in FAR 52.227-19.
  
 Gaussian, Inc.
 340 Quinnipiac St., Bldg. 40, Wallingford CT 06492
  
  
 ---------------------------------------------------------------
 Warning -- This program may not be used in any manner that
 competes with the business of Gaussian, Inc. or will provide
 assistance to any competitor of Gaussian, Inc.  The licensee
 of this program is prohibited from giving any competitor of
 Gaussian, Inc. access to this program.  By using this program,
 the user acknowledges that Gaussian, Inc. is engaged in the
 business of creating and licensing software in the field of
 computational chemistry and represents and warrants to the
 licensee that it is not a competitor of Gaussian, Inc. and that
 it will not use this program in any manner prohibited above.
 ---------------------------------------------------------------
  

 Cite this work as:
 Gaussian 16, Revision B.01,
 M. J. Frisch, G. W. Trucks, H. B. Schlegel, G. E. Scuseria, 
 M. A. Robb, J. R. Cheeseman, G. Scalmani, V. Barone, 
 G. A. Petersson, H. Nakatsuji, X. Li, M. Caricato, A. V. Marenich, 
 J. Bloino, B. G. Janesko, R. Gomperts, B. Mennucci, H. P. Hratchian, 
 J. V. Ortiz, A. F. Izmaylov, J. L. Sonnenberg, D. Williams-Young, 
 F. Ding, F. Lipparini, F. Egidi, J. Goings, B. Peng, A. Petrone, 
 T. Henderson, D. Ranasinghe, V. G. Zakrzewski, J. Gao, N. Rega, 
 G. Zheng, W. Liang, M. Hada, M. Ehara, K. Toyota, R. Fukuda, 
 J. Hasegawa, M. Ishida, T. Nakajima, Y. Honda, O. Kitao, H. Nakai, 
 T. Vreven, K. Throssell, J. A. Montgomery, Jr., J. E. Peralta, 
 F. Ogliaro, M. J. Bearpark, J. J. Heyd, E. N. Brothers, K. N. Kudin, 
 V. N. Staroverov, T. A. Keith, R. Kobayashi, J. Normand, 
 K. Raghavachari, A. P. Rendell, J. C. Burant, S. S. Iyengar, 
 J. Tomasi, M. Cossi, J. M. Millam, M. Klene, C. Adamo, R. Cammi, 
 J. W. Ochterski, R. L. Martin, K. Morokuma, O. Farkas, 
 J. B. Foresman, and D. J. Fox, Gaussian, Inc., Wallingford CT, 2016.
 
 ******************************************
 Gaussian 16:  EM64L-G16RevB.01 20-Dec-2017
                16-Jun-2025 
 ******************************************
 %chk=NH3_AlH3_opt.chk
 ----------------------------------------------
 # opt freq hf/3-21g pop=full geom=connectivity
 ----------------------------------------------
 1/18=20,19=15,38=1,57=2/1,3;
 2/9=110,12=2,17=6,18=5,40=1/2;
 3/5=5,11=9,25=1,30=1,71=1/1,2,3;
 4//1;
 5/5=2,38=5/2;
 6/7=3,28=1/1;
 7//1,2,3,16;
 1/18=20,19=15/3(2);
 2/9=110/2;
 99//99;
 2/9=110/2;
 3/5=5,11=9,25=1,30=1,71=1/1,2,3;
 4/5=5,16=3,69=1/1;
 5/5=2,38=5/2;
 7//1,2,3,16;
 1/18=20,19=15/3(-5);
 2/9=110/2;
 6/7=3,19=2,28=1/1;
 99/9=1/99;
 -------------------
 Title Card Required
 -------------------
 Symbolic Z-matrix:
 Charge =  0 Multiplicity = 1
 N                    -2.73209   0.74007  -0.26053 
 H                    -1.89509   0.34079   0.11366 
 H                    -3.13297   1.36358   0.41069 
 H                    -2.516     1.24439  -1.09656 
 Al                   -4.00388  -0.68062  -0.66878 
 H                    -4.33882  -1.46233   0.62708 
 H                    -5.30123  -0.06174  -1.24877 
 H                    -3.38251  -1.64707  -1.70916 
 

 GradGradGradGradGradGradGradGradGradGradGradGradGradGradGradGradGradGrad
 Berny optimization.
 Initialization pass.
                           ----------------------------
                           !    Initial Parameters    !
                           ! (Angstroms and Degrees)  !
 --------------------------                            --------------------------
 ! Name  Definition              Value          Derivative Info.                !
 --------------------------------------------------------------------------------
 ! R1    R(1,2)                  1.0            estimate D2E/DX2                !
 ! R2    R(1,3)                  1.0            estimate D2E/DX2                !
 ! R3    R(1,4)                  1.0            estimate D2E/DX2                !
 ! R4    R(1,5)                  1.95           estimate D2E/DX2                !
 ! R5    R(5,6)                  1.55           estimate D2E/DX2                !
 ! R6    R(5,7)                  1.55           estimate D2E/DX2                !
 ! R7    R(5,8)                  1.55           estimate D2E/DX2                !
 ! A1    A(2,1,3)              109.4712         estimate D2E/DX2                !
 ! A2    A(2,1,4)              109.4712         estimate D2E/DX2                !
 ! A3    A(2,1,5)              109.4712         estimate D2E/DX2                !
 ! A4    A(3,1,4)              109.4712         estimate D2E/DX2                !
 ! A5    A(3,1,5)              109.4712         estimate D2E/DX2                !
 ! A6    A(4,1,5)              109.4712         estimate D2E/DX2                !
 ! A7    A(1,5,6)              109.4712         estimate D2E/DX2                !
 ! A8    A(1,5,7)              109.4712         estimate D2E/DX2                !
 ! A9    A(1,5,8)              109.4712         estimate D2E/DX2                !
 ! A10   A(6,5,7)              109.4712         estimate D2E/DX2                !
 ! A11   A(6,5,8)              109.4712         estimate D2E/DX2                !
 ! A12   A(7,5,8)              109.4712         estimate D2E/DX2                !
 ! D1    D(2,1,5,6)             60.0            estimate D2E/DX2                !
 ! D2    D(2,1,5,7)            180.0            estimate D2E/DX2                !
 ! D3    D(2,1,5,8)            -60.0            estimate D2E/DX2                !
 ! D4    D(3,1,5,6)            -60.0            estimate D2E/DX2                !
 ! D5    D(3,1,5,7)             60.0            estimate D2E/DX2                !
 ! D6    D(3,1,5,8)            180.0            estimate D2E/DX2                !
 ! D7    D(4,1,5,6)           -180.0            estimate D2E/DX2                !
 ! D8    D(4,1,5,7)            -60.0            estimate D2E/DX2                !
 ! D9    D(4,1,5,8)             60.0            estimate D2E/DX2                !
 --------------------------------------------------------------------------------
 Trust Radius=3.00D-01 FncErr=1.00D-07 GrdErr=1.00D-07 EigMax=2.50D+02 EigMin=1.00D-04
 Number of steps in this run=     38 maximum allowed number of steps=    100.
 GradGradGradGradGradGradGradGradGradGradGradGradGradGradGradGradGradGrad

                          Input orientation:                          
 ---------------------------------------------------------------------
 Center     Atomic      Atomic             Coordinates (Angstroms)
 Number     Number       Type             X           Y           Z
 ---------------------------------------------------------------------
      1          7           0       -2.732086    0.740068   -0.260525
      2          1           0       -1.895091    0.340790    0.113662
      3          1           0       -3.132970    1.363580    0.410686
      4          1           0       -2.515995    1.244394   -1.096564
      5         13           0       -4.003883   -0.680623   -0.668778
      6          1           0       -4.338825   -1.462327    0.627082
      7          1           0       -5.301226   -0.061742   -1.248768
      8          1           0       -3.382514   -1.647067   -1.709156
 ---------------------------------------------------------------------
                    Distance matrix (angstroms):
                    1          2          3          4          5
     1  N    0.000000
     2  H    1.000000   0.000000
     3  H    1.000000   1.632993   0.000000
     4  H    1.000000   1.632993   1.632993   0.000000
     5  Al   1.950000   2.470324   2.470324   2.470324   0.000000
     6  H    2.867054   3.080043   3.080043   3.690528   1.550000
     7  H    2.867054   3.690528   3.080043   3.080043   1.550000
     8  H    2.867054   3.080043   3.690528   3.080043   1.550000
                    6          7          8
     6  H    0.000000
     7  H    2.531139   0.000000
     8  H    2.531139   2.531139   0.000000
 Stoichiometry    AlH6N
 Framework group  C3V[C3(NAl),3SGV(H2)]
 Deg. of freedom     5
 Full point group                 C3V     NOp   6
 Largest Abelian subgroup         CS      NOp   2
 Largest concise Abelian subgroup CS      NOp   2
                         Standard orientation:                         
 ---------------------------------------------------------------------
 Center     Atomic      Atomic             Coordinates (Angstroms)
 Number     Number       Type             X           Y           Z
 ---------------------------------------------------------------------
      1          7           0       -0.000000    0.000000   -1.221154
      2          1           0        0.816497    0.471405   -1.554487
      3          1           0       -0.816497    0.471405   -1.554487
      4          1           0       -0.000000   -0.942809   -1.554487
      5         13           0        0.000000   -0.000000    0.728846
      6          1           0       -0.000000    1.461354    1.245513
      7          1           0       -1.265570   -0.730677    1.245513
      8          1           0        1.265570   -0.730677    1.245513
 ---------------------------------------------------------------------
 Rotational constants (GHZ):          55.2669111           9.7701981           9.7701981
 Standard basis: 3-21G (6D, 7F)
 There are    25 symmetry adapted cartesian basis functions of A'  symmetry.
 There are     9 symmetry adapted cartesian basis functions of A"  symmetry.
 There are    25 symmetry adapted basis functions of A'  symmetry.
 There are     9 symmetry adapted basis functions of A"  symmetry.
    34 basis functions,    60 primitive gaussians,    34 cartesian basis functions
    13 alpha electrons       13 beta electrons
       nuclear repulsion energy        64.4131553634 Hartrees.
 NAtoms=    8 NActive=    8 NUniq=    4 SFac= 4.00D+00 NAtFMM=   60 NAOKFM=F Big=F
 Integral buffers will be    131072 words long.
 Raffenetti 1 integral format.
 Two-electron integral symmetry is turned on.
 One-electron integrals computed using PRISM.
 NBasis=    34 RedAO= T EigKep=  4.17D-02  NBF=    25     9
 NBsUse=    34 1.00D-06 EigRej= -1.00D+00 NBFU=    25     9
 ExpMin= 6.39D-02 ExpMax= 7.76D+02 ExpMxC= 7.76D+02 IAcc=3 IRadAn=         5 AccDes= 0.00D+00
 Harris functional with IExCor=  205 and IRadAn=       5 diagonalized for initial guess.
 HarFok:  IExCor=  205 AccDes= 0.00D+00 IRadAn=         5 IDoV= 1 UseB2=F ITyADJ=14
 ICtDFT=  3500011 ScaDFX=  1.000000  1.000000  1.000000  1.000000
 FoFCou: FMM=F IPFlag=           0 FMFlag=      100000 FMFlg1=           0
         NFxFlg=           0 DoJE=T BraDBF=F KetDBF=T FulRan=T
         wScrn=  0.000000 ICntrl=       500 IOpCl=  0 I1Cent=   200000004 NGrid=           0
         NMat0=    1 NMatS0=      1 NMatT0=    0 NMatD0=    1 NMtDS0=    0 NMtDT0=    0
 Petite list used in FoFCou.
 Initial guess orbital symmetries:
       Occupied  (A1) (A1) (A1) (E) (E) (A1) (A1) (E) (E) (A1)
                 (A1) (E) (E)
       Virtual   (A1) (E) (E) (A1) (E) (E) (A1) (A1) (E) (E) (A1)
                 (E) (E) (A1) (E) (E) (A1) (E) (E) (A1) (A1)
 The electronic state of the initial guess is 1-A1.
 Keep R1 ints in memory in symmetry-blocked form, NReq=990716.
 Requested convergence on RMS density matrix=1.00D-08 within 128 cycles.
 Requested convergence on MAX density matrix=1.00D-06.
 Requested convergence on             energy=1.00D-06.
 No special actions if energy rises.
 SCF Done:  E(RHF) =  -298.210270711     A.U. after    9 cycles
            NFock=  9  Conv=0.78D-08     -V/T= 2.0008

 **********************************************************************

            Population analysis using the SCF Density.

 **********************************************************************

 Orbital symmetries:
       Occupied  (A1) (A1) (A1) (E) (E) (A1) (A1) (E) (E) (A1)
                 (A1) (E) (E)
       Virtual   (A1) (E) (E) (A1) (E) (E) (A1) (A1) (E) (E) (A1)
                 (E) (E) (A1) (E) (E) (A1) (E) (E) (A1) (A1)
 The electronic state is 1-A1.
 Alpha  occ. eigenvalues --  -57.98588 -15.58638  -4.79871  -3.10259  -3.10259
 Alpha  occ. eigenvalues --   -3.10199  -1.27805  -0.75950  -0.75950  -0.64430
 Alpha  occ. eigenvalues --   -0.48898  -0.36921  -0.36921
 Alpha virt. eigenvalues --    0.12426   0.20022   0.20022   0.24420   0.28872
 Alpha virt. eigenvalues --    0.28872   0.34670   0.40900   0.43410   0.43410
 Alpha virt. eigenvalues --    0.51234   1.12720   1.12720   1.23146   1.41409
 Alpha virt. eigenvalues --    1.41409   1.44097   1.50914   1.50914   1.52787
 Alpha virt. eigenvalues --    2.59841
     Molecular Orbital Coefficients:
                           1         2         3         4         5
                        (A1)--O   (A1)--O   (A1)--O   (E)--O    (E)--O
     Eigenvalues --   -57.98588 -15.58638  -4.79871  -3.10259  -3.10259
   1 1   N  1S         -0.00018   0.98565   0.00062   0.00000  -0.00000
   2        2S         -0.00134   0.09982   0.00486   0.00000   0.00000
   3        2PX         0.00000   0.00000   0.00000   0.00156   0.00000
   4        2PY         0.00000   0.00000   0.00000   0.00000   0.00156
   5        2PZ        -0.00037  -0.00138   0.00083   0.00000  -0.00000
   6        3S          0.00312  -0.05376  -0.01509   0.00000  -0.00000
   7        3PX         0.00000   0.00000   0.00000  -0.00862   0.00000
   8        3PY        -0.00000  -0.00000  -0.00000   0.00000  -0.00862
   9        3PZ         0.00222   0.00288  -0.00802   0.00000  -0.00000
  10 2   H  1S         -0.00042   0.00169   0.00125   0.00182   0.00105
  11        2S         -0.00000   0.00952   0.00361   0.00389   0.00225
  12 3   H  1S         -0.00042   0.00169   0.00125  -0.00182   0.00105
  13        2S         -0.00000   0.00952   0.00361  -0.00389   0.00225
  14 4   H  1S         -0.00042   0.00169   0.00125   0.00000  -0.00210
  15        2S         -0.00000   0.00952   0.00361   0.00000  -0.00449
  16 5   Al 1S          0.98851   0.00011  -0.28398   0.00000   0.00000
  17        2S          0.04427  -0.00022   1.01028   0.00000  -0.00000
  18        2PX         0.00000   0.00000   0.00000   0.97801   0.00000
  19        2PY        -0.00000   0.00000  -0.00000   0.00000   0.97801
  20        2PZ        -0.00020   0.00065  -0.00572   0.00000  -0.00000
  21        3S         -0.01202   0.00506   0.09621   0.00000   0.00000
  22        3PX         0.00000   0.00000   0.00000   0.08990   0.00000
  23        3PY         0.00000   0.00000   0.00000   0.00000   0.08990
  24        3PZ         0.00124  -0.00597  -0.00801   0.00000  -0.00000
  25        4S          0.00176  -0.00174  -0.02953   0.00000  -0.00000
  26        4PX         0.00000   0.00000   0.00000  -0.02537   0.00000
  27        4PY         0.00000   0.00000   0.00000   0.00000  -0.02537
  28        4PZ        -0.00049   0.00338   0.00641   0.00000   0.00000
  29 6   H  1S          0.00078   0.00008  -0.00279   0.00000  -0.00418
  30        2S          0.00114  -0.00047  -0.00356   0.00000  -0.00497
  31 7   H  1S          0.00078   0.00008  -0.00279   0.00362   0.00209
  32        2S          0.00114  -0.00047  -0.00356   0.00431   0.00249
  33 8   H  1S          0.00078   0.00008  -0.00279  -0.00362   0.00209
  34        2S          0.00114  -0.00047  -0.00356  -0.00431   0.00249
                           6         7         8         9        10
                        (A1)--O   (A1)--O   (E)--O    (E)--O    (A1)--O
     Eigenvalues --    -3.10199  -1.27805  -0.75950  -0.75950  -0.64430
   1 1   N  1S          0.00022  -0.22259  -0.00000   0.00000  -0.03090
   2        2S         -0.00449   0.19870  -0.00000   0.00000   0.01837
   3        2PX         0.00000   0.00000   0.00000   0.40000   0.00000
   4        2PY         0.00000  -0.00000   0.40000   0.00000   0.00000
   5        2PZ         0.00021  -0.04772  -0.00000   0.00000   0.39429
   6        3S          0.02038   0.69686   0.00000   0.00000   0.16152
   7        3PX         0.00000   0.00000   0.00000   0.38871   0.00000
   8        3PY        -0.00000   0.00000   0.38871   0.00000  -0.00000
   9        3PZ         0.00597  -0.03655  -0.00000   0.00000   0.47960
  10 2   H  1S         -0.00127   0.11493   0.12678   0.21959  -0.05993
  11        2S         -0.00758   0.00340   0.07779   0.13474  -0.05582
  12 3   H  1S         -0.00127   0.11493   0.12678  -0.21959  -0.05993
  13        2S         -0.00758   0.00340   0.07779  -0.13474  -0.05582
  14 4   H  1S         -0.00127   0.11493  -0.25356   0.00000  -0.05993
  15        2S         -0.00758   0.00340  -0.15558   0.00000  -0.05582
  16 5   Al 1S         -0.00217   0.00528  -0.00000   0.00000   0.03273
  17        2S          0.00749  -0.02556   0.00000   0.00000  -0.16378
  18        2PX         0.00000   0.00000   0.00000  -0.01545   0.00000
  19        2PY         0.00000   0.00000  -0.01545   0.00000   0.00000
  20        2PZ         0.97675   0.02517  -0.00000   0.00000   0.05721
  21        3S         -0.00818   0.01116   0.00000   0.00000   0.18460
  22        3PX         0.00000   0.00000   0.00000   0.01644   0.00000
  23        3PY         0.00000  -0.00000   0.01644   0.00000   0.00000
  24        3PZ         0.09780  -0.00335  -0.00000   0.00000  -0.04394
  25        4S          0.01019   0.02023   0.00000   0.00000   0.13137
  26        4PX         0.00000   0.00000   0.00000   0.01471   0.00000
  27        4PY        -0.00000   0.00000   0.01471   0.00000   0.00000
  28        4PZ        -0.03577  -0.01169  -0.00000   0.00000  -0.02828
  29 6   H  1S         -0.00127   0.00179   0.00668   0.00000   0.05136
  30        2S         -0.00272  -0.00126   0.00254   0.00000   0.05631
  31 7   H  1S         -0.00127   0.00179  -0.00334  -0.00579   0.05136
  32        2S         -0.00272  -0.00126  -0.00127  -0.00220   0.05631
  33 8   H  1S         -0.00127   0.00179  -0.00334   0.00579   0.05136
  34        2S         -0.00272  -0.00126  -0.00127   0.00220   0.05631
                          11        12        13        14        15
                        (A1)--O   (E)--O    (E)--O    (A1)--V   (E)--V
     Eigenvalues --    -0.48898  -0.36921  -0.36921   0.12426   0.20022
   1 1   N  1S         -0.03743   0.00000   0.00000  -0.11039   0.00000
   2        2S          0.02592   0.00000  -0.00000   0.04976   0.00000
   3        2PX         0.00000   0.03112   0.00000   0.00000  -0.12686
   4        2PY        -0.00000   0.00000  -0.03112   0.00000   0.00000
   5        2PZ         0.20441   0.00000  -0.00000   0.00240   0.00000
   6        3S          0.19085   0.00000  -0.00000   0.99915   0.00000
   7        3PX         0.00000   0.03244   0.00000   0.00000  -0.32445
   8        3PY        -0.00000   0.00000  -0.03244   0.00000   0.00000
   9        3PZ         0.29556   0.00000  -0.00000   0.03631   0.00000
  10 2   H  1S         -0.02254   0.02308  -0.01332  -0.03228  -0.02250
  11        2S         -0.01359   0.03545  -0.02047  -0.17543   0.19089
  12 3   H  1S         -0.02254  -0.02308  -0.01332  -0.03228   0.02250
  13        2S         -0.01359  -0.03545  -0.02047  -0.17543  -0.19089
  14 4   H  1S         -0.02254   0.00000   0.02665  -0.03228   0.00000
  15        2S         -0.01359   0.00000   0.04094  -0.17543   0.00000
  16 5   Al 1S         -0.03572   0.00000   0.00000  -0.00337   0.00000
  17        2S          0.18363   0.00000  -0.00000   0.05645   0.00000
  18        2PX         0.00000   0.14977   0.00000   0.00000   0.00089
  19        2PY        -0.00000   0.00000  -0.14977  -0.00000   0.00000
  20        2PZ         0.08773   0.00000  -0.00000  -0.05375   0.00000
  21        3S         -0.23755   0.00000   0.00000   0.22628   0.00000
  22        3PX         0.00000  -0.26619   0.00000   0.00000  -0.05422
  23        3PY         0.00000   0.00000   0.26619   0.00000   0.00000
  24        3PZ        -0.11524   0.00000   0.00000  -0.01214   0.00000
  25        4S         -0.19574   0.00000   0.00000  -0.61641   0.00000
  26        4PX         0.00000  -0.12675   0.00000   0.00000   1.44488
  27        4PY        -0.00000   0.00000   0.12675   0.00000   0.00000
  28        4PZ         0.00071   0.00000   0.00000   0.98673   0.00000
  29 6   H  1S         -0.13793   0.00000   0.23484   0.01727   0.00000
  30        2S         -0.20859   0.00000   0.43736   0.01874   0.00000
  31 7   H  1S         -0.13793   0.20338  -0.11742   0.01727   0.05926
  32        2S         -0.20859   0.37877  -0.21868   0.01874   0.76697
  33 8   H  1S         -0.13793  -0.20338  -0.11742   0.01727  -0.05926
  34        2S         -0.20859  -0.37877  -0.21868   0.01874  -0.76697
                          16        17        18        19        20
                        (E)--V    (A1)--V   (E)--V    (E)--V    (A1)--V
     Eigenvalues --     0.20022   0.24420   0.28872   0.28872   0.34670
   1 1   N  1S         -0.00000   0.07384   0.00000   0.00000  -0.05727
   2        2S          0.00000  -0.01411   0.00000  -0.00000   0.01875
   3        2PX         0.00000   0.00000  -0.25185   0.00000   0.00000
   4        2PY        -0.12686  -0.00000   0.00000   0.25185   0.00000
   5        2PZ        -0.00000   0.14259   0.00000   0.00000  -0.14883
   6        3S          0.00000  -0.89948   0.00000  -0.00000   0.73641
   7        3PX         0.00000   0.00000  -0.93980   0.00000   0.00000
   8        3PY        -0.32445  -0.00000   0.00000   0.93980   0.00000
   9        3PZ        -0.00000   0.40555   0.00000   0.00000  -0.46735
  10 2   H  1S         -0.01299   0.03190   0.10940  -0.06316  -0.01842
  11        2S          0.11021   0.63939   1.28198  -0.74015  -0.75331
  12 3   H  1S         -0.01299   0.03190  -0.10940  -0.06316  -0.01842
  13        2S          0.11021   0.63939  -1.28198  -0.74015  -0.75331
  14 4   H  1S          0.02598   0.03190   0.00000   0.12633  -0.01842
  15        2S         -0.22042   0.63939   0.00000   1.48030  -0.75331
  16 5   Al 1S         -0.00000  -0.01481   0.00000  -0.00000  -0.02653
  17        2S          0.00000   0.02596   0.00000   0.00000  -0.02409
  18        2PX         0.00000   0.00000   0.04620   0.00000   0.00000
  19        2PY         0.00089   0.00000   0.00000  -0.04620   0.00000
  20        2PZ         0.00000  -0.03510   0.00000   0.00000   0.07959
  21        3S          0.00000  -0.46588   0.00000   0.00000  -1.28949
  22        3PX         0.00000   0.00000  -0.16401   0.00000   0.00000
  23        3PY        -0.05422  -0.00000   0.00000   0.16401  -0.00000
  24        3PZ         0.00000   0.06066   0.00000  -0.00000  -0.24295
  25        4S         -0.00000   1.00684   0.00000  -0.00000   2.52845
  26        4PX         0.00000   0.00000  -0.55814   0.00000   0.00000
  27        4PY         1.44488   0.00000   0.00000   0.55814   0.00000
  28        4PZ        -0.00000   1.04827   0.00000  -0.00000  -0.26211
  29 6   H  1S         -0.06842  -0.03468   0.00000  -0.04668  -0.03606
  30        2S         -0.88562  -0.45893   0.00000  -0.44690  -0.41098
  31 7   H  1S          0.03421  -0.03468  -0.04042   0.02334  -0.03606
  32        2S          0.44281  -0.45893  -0.38703   0.22345  -0.41098
  33 8   H  1S          0.03421  -0.03468   0.04042   0.02334  -0.03606
  34        2S          0.44281  -0.45893   0.38703   0.22345  -0.41098
                          21        22        23        24        25
                        (A1)--V   (E)--V    (E)--V    (A1)--V   (E)--V
     Eigenvalues --     0.40900   0.43410   0.43410   0.51234   1.12720
   1 1   N  1S          0.01684   0.00000   0.00000  -0.05902   0.00000
   2        2S         -0.04190   0.00000  -0.00000   0.04943   0.00000
   3        2PX         0.00000  -0.08954   0.00000   0.00000   0.08215
   4        2PY         0.00000   0.00000  -0.08954   0.00000   0.00000
   5        2PZ        -0.18229   0.00000  -0.00000   0.06913   0.00000
   6        3S          0.03501   0.00000   0.00000   0.56206   0.00000
   7        3PX         0.00000  -0.17186   0.00000   0.00000  -0.74974
   8        3PY         0.00000   0.00000  -0.17186   0.00000   0.00000
   9        3PZ        -0.36599   0.00000  -0.00000   0.28293   0.00000
  10 2   H  1S         -0.03206  -0.04895  -0.02826   0.04125   0.95928
  11        2S         -0.15043   0.29784   0.17196  -0.42927  -0.62526
  12 3   H  1S         -0.03206   0.04895  -0.02826   0.04125  -0.95928
  13        2S         -0.15043  -0.29784   0.17196  -0.42927   0.62526
  14 4   H  1S         -0.03206   0.00000   0.05652   0.04125   0.00000
  15        2S         -0.15043   0.00000  -0.34392  -0.42927   0.00000
  16 5   Al 1S          0.06456   0.00000   0.00000  -0.00795   0.00000
  17        2S         -0.25214   0.00000  -0.00000  -0.01149   0.00000
  18        2PX         0.00000  -0.31539   0.00000   0.00000  -0.05214
  19        2PY         0.00000   0.00000  -0.31539   0.00000   0.00000
  20        2PZ         0.02553   0.00000   0.00000  -0.34597   0.00000
  21        3S          1.23437   0.00000   0.00000  -0.43030   0.00000
  22        3PX         0.00000   1.43816   0.00000   0.00000   0.25087
  23        3PY        -0.00000   0.00000   1.43816  -0.00000   0.00000
  24        3PZ        -0.05123   0.00000  -0.00000   1.62300   0.00000
  25        4S          0.80545   0.00000   0.00000   1.05902   0.00000
  26        4PX         0.00000  -0.60330   0.00000   0.00000   0.33695
  27        4PY         0.00000   0.00000  -0.60330   0.00000   0.00000
  28        4PZ         0.26152   0.00000   0.00000  -1.09073   0.00000
  29 6   H  1S         -0.08081   0.00000   0.00590  -0.00680   0.00000
  30        2S         -0.82810   0.00000  -0.60742  -0.37508   0.00000
  31 7   H  1S         -0.08081  -0.00511  -0.00295  -0.00680   0.02325
  32        2S         -0.82810   0.52604   0.30371  -0.37508   0.24274
  33 8   H  1S         -0.08081   0.00511  -0.00295  -0.00680  -0.02325
  34        2S         -0.82810  -0.52604   0.30371  -0.37508  -0.24274
                          26        27        28        29        30
                        (E)--V    (A1)--V   (E)--V    (E)--V    (A1)--V
     Eigenvalues --     1.12720   1.23146   1.41409   1.41409   1.44097
   1 1   N  1S          0.00000   0.10426   0.00000   0.00000  -0.00615
   2        2S          0.00000  -0.15702  -0.00000   0.00000   0.04955
   3        2PX         0.00000   0.00000   0.00000  -0.75811   0.00000
   4        2PY        -0.08215   0.00000  -0.75811   0.00000  -0.00000
   5        2PZ         0.00000  -0.24560   0.00000   0.00000  -0.55907
   6        3S         -0.00000  -0.25440   0.00000   0.00000  -0.16999
   7        3PX         0.00000   0.00000   0.00000   0.95286   0.00000
   8        3PY         0.74974   0.00000   0.95286   0.00000   0.00000
   9        3PZ        -0.00000   0.59163  -0.00000   0.00000   0.59084
  10 2   H  1S         -0.55384   0.77480   0.04048   0.07011  -0.09307
  11        2S          0.36100  -0.30908  -0.22847  -0.39573   0.13283
  12 3   H  1S         -0.55384   0.77480   0.04048  -0.07011  -0.09307
  13        2S          0.36100  -0.30908  -0.22847   0.39573   0.13283
  14 4   H  1S          1.10768   0.77480  -0.08095   0.00000  -0.09307
  15        2S         -0.72199  -0.30908   0.45695   0.00000   0.13283
  16 5   Al 1S          0.00000   0.00311   0.00000   0.00000  -0.01585
  17        2S         -0.00000  -0.02565  -0.00000   0.00000   0.07923
  18        2PX         0.00000   0.00000   0.00000  -0.04817   0.00000
  19        2PY         0.05214   0.00000  -0.04817   0.00000  -0.00000
  20        2PZ         0.00000   0.02499  -0.00000   0.00000   0.02711
  21        3S          0.00000  -0.07012   0.00000   0.00000  -0.18424
  22        3PX         0.00000   0.00000   0.00000  -0.02735   0.00000
  23        3PY        -0.25087  -0.00000  -0.02735   0.00000  -0.00000
  24        3PZ        -0.00000   0.01207  -0.00000   0.00000   0.17665
  25        4S         -0.00000   0.03999  -0.00000   0.00000   1.03617
  26        4PX         0.00000   0.00000   0.00000  -0.51346   0.00000
  27        4PY        -0.33695  -0.00000  -0.51346   0.00000  -0.00000
  28        4PZ         0.00000  -0.06002  -0.00000   0.00000   0.29012
  29 6   H  1S          0.02685  -0.01430  -0.83095   0.00000   0.68867
  30        2S          0.28029   0.02426   1.04820   0.00000  -0.95820
  31 7   H  1S         -0.01342  -0.01430   0.41548   0.71962   0.68867
  32        2S         -0.14015   0.02426  -0.52410  -0.90777  -0.95820
  33 8   H  1S         -0.01342  -0.01430   0.41548  -0.71962   0.68867
  34        2S         -0.14015   0.02426  -0.52410   0.90777  -0.95820
                          31        32        33        34
                        (E)--V    (E)--V    (A1)--V   (A1)--V
     Eigenvalues --     1.50914   1.50914   1.52787   2.59841
   1 1   N  1S          0.00000   0.00000   0.01872   0.01244
   2        2S         -0.00000   0.00000  -0.08633  -1.84558
   3        2PX         0.00000  -0.81522   0.00000   0.00000
   4        2PY        -0.81522   0.00000   0.00000   0.00000
   5        2PZ         0.00000   0.00000   0.91761  -0.01417
   6        3S          0.00000   0.00000   0.28493   2.80634
   7        3PX         0.00000   1.09677   0.00000   0.00000
   8        3PY         1.09677   0.00000  -0.00000   0.00000
   9        3PZ        -0.00000   0.00000  -1.28447  -0.13996
  10 2   H  1S          0.08410   0.14566   0.19461  -0.26056
  11        2S         -0.43117  -0.74681  -0.53896  -0.47386
  12 3   H  1S          0.08410  -0.14566   0.19461  -0.26056
  13        2S         -0.43117   0.74681  -0.53896  -0.47386
  14 4   H  1S         -0.16820   0.00000   0.19461  -0.26056
  15        2S          0.86234   0.00000  -0.53896  -0.47386
  16 5   Al 1S          0.00000   0.00000   0.00061  -0.01039
  17        2S         -0.00000   0.00000  -0.00782   0.03152
  18        2PX         0.00000   0.08362   0.00000   0.00000
  19        2PY         0.08362   0.00000  -0.00000   0.00000
  20        2PZ         0.00000   0.00000   0.03757  -0.05955
  21        3S          0.00000   0.00000   0.14967  -0.34197
  22        3PX         0.00000  -0.20757   0.00000   0.00000
  23        3PY        -0.20757   0.00000   0.00000  -0.00000
  24        3PZ        -0.00000   0.00000  -0.30208   0.41959
  25        4S          0.00000   0.00000   1.57366   0.07005
  26        4PX         0.00000   0.49100   0.00000   0.00000
  27        4PY         0.49100   0.00000  -0.00000  -0.00000
  28        4PZ        -0.00000   0.00000  -0.02742  -0.21927
  29 6   H  1S          0.77849   0.00000   0.43871  -0.00818
  30        2S         -0.88750   0.00000  -0.88499   0.05010
  31 7   H  1S         -0.38924  -0.67419   0.43871  -0.00818
  32        2S          0.44375   0.76859  -0.88499   0.05010
  33 8   H  1S         -0.38924   0.67419   0.43871  -0.00818
  34        2S          0.44375  -0.76859  -0.88499   0.05010
     Density Matrix:
                           1         2         3         4         5
   1 1   N  1S          2.04683
   2        2S          0.10525   0.10100
   3        2PX        -0.00000   0.00000   0.32194
   4        2PY         0.00000  -0.00000  -0.00000   0.32194
   5        2PZ        -0.02115   0.00585   0.00000  -0.00000   0.39905
   6        3S         -0.44049   0.28169   0.00000  -0.00000   0.13901
   7        3PX         0.00000   0.00000   0.31296  -0.00000   0.00000
   8        3PY         0.00000  -0.00000  -0.00000   0.31296  -0.00000
   9        3PZ        -0.02983   0.01885   0.00000  -0.00000   0.50250
  10 2   H  1S         -0.04243   0.04267   0.17711   0.10226  -0.06745
  11        2S          0.02173   0.00060   0.11001   0.06351  -0.04992
  12 3   H  1S         -0.04243   0.04267  -0.17711   0.10226  -0.06745
  13        2S          0.02173   0.00060  -0.11001   0.06351  -0.04992
  14 4   H  1S         -0.04243   0.04267   0.00000  -0.20451  -0.06745
  15        2S          0.02173   0.00060   0.00000  -0.12703  -0.04992
  16 5   Al 1S         -0.00220  -0.00392   0.00000  -0.00000   0.00950
  17        2S          0.00857   0.00293   0.00000   0.00000  -0.05000
  18        2PX         0.00000  -0.00000   0.00001  -0.00000   0.00000
  19        2PY         0.00000  -0.00000  -0.00000   0.00001  -0.00000
  20        2PZ        -0.01961   0.00795   0.00000  -0.00000   0.07898
  21        3S          0.01151   0.00096   0.00000  -0.00000   0.04754
  22        3PX         0.00000   0.00000  -0.00314   0.00000  -0.00000
  23        3PY        -0.00000   0.00000   0.00000  -0.00314   0.00000
  24        3PZ         0.00109  -0.01107  -0.00000   0.00000  -0.08140
  25        4S         -0.00593   0.00199   0.00000  -0.00000   0.02161
  26        4PX         0.00000   0.00000   0.00380  -0.00000   0.00000
  27        4PY        -0.00000   0.00000  -0.00000   0.00380   0.00000
  28        4PZ         0.01354  -0.00459   0.00000   0.00000  -0.02091
  29 6   H  1S          0.00651  -0.00455   0.00000  -0.00928  -0.01607
  30        2S          0.01176  -0.00935   0.00000  -0.02520  -0.04076
  31 7   H  1S          0.00651  -0.00455   0.00804   0.00464  -0.01607
  32        2S          0.01176  -0.00935   0.02183   0.01260  -0.04076
  33 8   H  1S          0.00651  -0.00455  -0.00804   0.00464  -0.01607
  34        2S          0.01176  -0.00935  -0.02183   0.01260  -0.04076
                           6         7         8         9        10
   6        3S          1.10334
   7        3PX         0.00000   0.30445
   8        3PY        -0.00000  -0.00000   0.30445
   9        3PZ         0.21699   0.00000  -0.00000   0.63764
  10 2   H  1S          0.13195   0.17218   0.09941  -0.07924   0.16465
  11        2S         -0.01993   0.10698   0.06177  -0.06192   0.08925
  12 3   H  1S          0.13195  -0.17218   0.09941  -0.07924  -0.03038
  13        2S         -0.01993  -0.10698   0.06177  -0.06192  -0.03241
  14 4   H  1S          0.13195   0.00000  -0.19882  -0.07924  -0.03038
  15        2S         -0.01993   0.00000  -0.12353  -0.06192  -0.03241
  16 5   Al 1S          0.01894   0.00000  -0.00000   0.01882  -0.00263
  17        2S         -0.04833  -0.00000   0.00000  -0.06261   0.00794
  18        2PX         0.00000  -0.01916   0.00000  -0.00000   0.00368
  19        2PY        -0.00000   0.00000  -0.01916  -0.00000   0.00213
  20        2PZ         0.12695  -0.00000  -0.00000   0.11665  -0.00752
  21        3S         -0.01934   0.00000  -0.00000   0.03417  -0.00856
  22        3PX         0.00000  -0.00604   0.00000  -0.00000  -0.00474
  23        3PY         0.00000   0.00000  -0.00604   0.00000  -0.00274
  24        3PZ        -0.05797  -0.00000   0.00000  -0.10876   0.00940
  25        4S         -0.00258  -0.00000  -0.00000   0.00943  -0.00238
  26        4PX        -0.00000   0.00365  -0.00000   0.00000   0.00052
  27        4PY         0.00000  -0.00000   0.00365   0.00000   0.00030
  28        4PZ        -0.02717   0.00000   0.00000  -0.02636   0.00079
  29 6   H  1S         -0.03353   0.00000  -0.00997  -0.03237  -0.00410
  30        2S         -0.06313   0.00000  -0.02631  -0.06917  -0.00866
  31 7   H  1S         -0.03353   0.00863   0.00498  -0.03237   0.00962
  32        2S         -0.06313   0.02279   0.01316  -0.06917   0.02440
  33 8   H  1S         -0.03353  -0.00863   0.00498  -0.03237  -0.00410
  34        2S         -0.06313  -0.02279   0.01316  -0.06917  -0.00866
                          11        12        13        14        15
  11        2S          0.05875
  12 3   H  1S         -0.03241   0.16465
  13        2S         -0.01896   0.08925   0.05875
  14 4   H  1S         -0.03241  -0.03038  -0.03241   0.16465
  15        2S         -0.01896  -0.03241  -0.01896   0.08925   0.05875
  16 5   Al 1S         -0.00467  -0.00263  -0.00467  -0.00263  -0.00467
  17        2S          0.02030   0.00794   0.02030   0.00794   0.02030
  18        2PX         0.01406  -0.00368  -0.01406   0.00000   0.00000
  19        2PY         0.00812   0.00213   0.00812  -0.00425  -0.01624
  20        2PZ        -0.02343  -0.00752  -0.02343  -0.00752  -0.02343
  21        3S         -0.01316  -0.00856  -0.01316  -0.00856  -0.01316
  22        3PX        -0.01375   0.00474   0.01375  -0.00000  -0.00000
  23        3PY        -0.00794  -0.00274  -0.00794   0.00547   0.01587
  24        3PZ         0.00636   0.00940   0.00636   0.00940   0.00636
  25        4S         -0.00961  -0.00238  -0.00961  -0.00238  -0.00961
  26        4PX        -0.00522  -0.00052   0.00522   0.00000  -0.00000
  27        4PY        -0.00302   0.00030  -0.00302  -0.00060   0.00603
  28        4PZ         0.00371   0.00079   0.00371   0.00079   0.00371
  29 6   H  1S         -0.01057  -0.00410  -0.01057   0.00962   0.01522
  30        2S         -0.01815  -0.00866  -0.01815   0.02440   0.03445
  31 7   H  1S          0.01522  -0.00410  -0.01057  -0.00410  -0.01057
  32        2S          0.03445  -0.00866  -0.01815  -0.00866  -0.01815
  33 8   H  1S         -0.01057   0.00962   0.01522  -0.00410  -0.01057
  34        2S         -0.01815   0.02440   0.03445  -0.00866  -0.01815
                          16        17        18        19        20
  16 5   Al 1S          2.12034
  17        2S         -0.51042   2.16775
  18        2PX         0.00000  -0.00000   1.95836
  19        2PY         0.00000  -0.00000  -0.00000   1.95836
  20        2PZ        -0.00366   0.01525   0.00000  -0.00000   1.93135
  21        3S         -0.04920   0.04492  -0.00000   0.00000  -0.03707
  22        3PX         0.00000  -0.00000   0.09561  -0.00000   0.00000
  23        3PY        -0.00000   0.00000  -0.00000   0.09561  -0.00000
  24        3PZ         0.01189  -0.04236   0.00000  -0.00000   0.16571
  25        4S          0.04300  -0.17532  -0.00000  -0.00000   0.00194
  26        4PX        -0.00000   0.00000  -0.08805   0.00000  -0.00000
  27        4PY         0.00000  -0.00000   0.00000  -0.08805   0.00000
  28        4PZ        -0.00648   0.02249  -0.00000   0.00000  -0.07365
  29 6   H  1S          0.01636  -0.07316   0.00000  -0.07873  -0.02068
  30        2S          0.02286  -0.10212   0.00000  -0.14081  -0.03550
  31 7   H  1S          0.01636  -0.07316   0.06818   0.03937  -0.02068
  32        2S          0.02286  -0.10212   0.12195   0.07041  -0.03550
  33 8   H  1S          0.01636  -0.07316  -0.06818   0.03937  -0.02068
  34        2S          0.02286  -0.10212  -0.12195   0.07041  -0.03550
                          21        22        23        24        25
  21        3S          0.20025
  22        3PX         0.00000   0.15842
  23        3PY        -0.00000  -0.00000   0.15842
  24        3PZ         0.03522   0.00000  -0.00000   0.04978
  25        4S          0.13604  -0.00000  -0.00000   0.03592   0.11393
  26        4PX         0.00000   0.06340  -0.00000   0.00000   0.00000
  27        4PY         0.00000  -0.00000   0.06340  -0.00000   0.00000
  28        4PZ        -0.00918   0.00000  -0.00000  -0.00474  -0.00930
  29 6   H  1S          0.08400  -0.00000   0.12449   0.02706   0.06770
  30        2S          0.11919  -0.00000   0.23204   0.04267   0.09656
  31 7   H  1S          0.08400  -0.10781  -0.06225   0.02706   0.06770
  32        2S          0.11919  -0.20095  -0.11602   0.04267   0.09656
  33 8   H  1S          0.08400   0.10781  -0.06225   0.02706   0.06770
  34        2S          0.11919   0.20095  -0.11602   0.04267   0.09656
                          26        27        28        29        30
  26        4PX         0.03385
  27        4PY        -0.00000   0.03385
  28        4PZ         0.00000  -0.00000   0.00454
  29 6   H  1S         -0.00000   0.05994  -0.00309   0.15377
  30        2S         -0.00000   0.11120  -0.00331   0.26884   0.47605
  31 7   H  1S         -0.05191  -0.02997  -0.00309  -0.01186  -0.03940
  32        2S         -0.09630  -0.05560  -0.00331  -0.03940  -0.09791
  33 8   H  1S          0.05191  -0.02997  -0.00309  -0.01186  -0.03940
  34        2S          0.09630  -0.05560  -0.00331  -0.03940  -0.09791
                          31        32        33        34
  31 7   H  1S          0.15377
  32        2S          0.26884   0.47605
  33 8   H  1S         -0.01186  -0.03940   0.15377
  34        2S         -0.03940  -0.09791   0.26884   0.47605
    Full Mulliken population analysis:
                           1         2         3         4         5
   1 1   N  1S          2.04683
   2        2S          0.02051   0.10100
   3        2PX         0.00000   0.00000   0.32194
   4        2PY         0.00000   0.00000   0.00000   0.32194
   5        2PZ         0.00000   0.00000   0.00000   0.00000   0.39905
   6        3S         -0.08115   0.21188   0.00000   0.00000   0.00000
   7        3PX         0.00000   0.00000   0.16149   0.00000   0.00000
   8        3PY         0.00000   0.00000   0.00000   0.16149   0.00000
   9        3PZ         0.00000   0.00000   0.00000   0.00000   0.25929
  10 2   H  1S         -0.00098   0.00783   0.03657   0.01219   0.00568
  11        2S          0.00155   0.00021   0.01467   0.00489   0.00272
  12 3   H  1S         -0.00098   0.00783   0.03657   0.01219   0.00568
  13        2S          0.00155   0.00021   0.01467   0.00489   0.00272
  14 4   H  1S         -0.00098   0.00783   0.00000   0.04876   0.00568
  15        2S          0.00155   0.00021   0.00000   0.01955   0.00272
  16 5   Al 1S          0.00000  -0.00000   0.00000   0.00000   0.00000
  17        2S          0.00000   0.00000   0.00000  -0.00000  -0.00002
  18        2PX         0.00000   0.00000   0.00000   0.00000   0.00000
  19        2PY         0.00000  -0.00000   0.00000   0.00000  -0.00000
  20        2PZ         0.00000  -0.00000   0.00000  -0.00000  -0.00006
  21        3S          0.00013   0.00007   0.00000   0.00000   0.00342
  22        3PX         0.00000   0.00000  -0.00011  -0.00000  -0.00000
  23        3PY        -0.00000   0.00000  -0.00000  -0.00011   0.00000
  24        3PZ        -0.00003   0.00194  -0.00000   0.00000   0.01091
  25        4S         -0.00016   0.00029   0.00000   0.00000   0.00106
  26        4PX         0.00000   0.00000   0.00020   0.00000   0.00000
  27        4PY        -0.00000   0.00000   0.00000   0.00020  -0.00000
  28        4PZ        -0.00066   0.00115   0.00000  -0.00000   0.00071
  29 6   H  1S          0.00000  -0.00000  -0.00000  -0.00000  -0.00000
  30        2S          0.00001  -0.00006  -0.00000  -0.00010  -0.00027
  31 7   H  1S          0.00000  -0.00000  -0.00000  -0.00000  -0.00000
  32        2S          0.00001  -0.00006  -0.00008  -0.00003  -0.00027
  33 8   H  1S          0.00000  -0.00000  -0.00000  -0.00000  -0.00000
  34        2S          0.00001  -0.00006  -0.00008  -0.00003  -0.00027
                           6         7         8         9        10
   6        3S          1.10334
   7        3PX         0.00000   0.30445
   8        3PY         0.00000   0.00000   0.30445
   9        3PZ         0.00000   0.00000   0.00000   0.63764
  10 2   H  1S          0.04807   0.07768   0.02589   0.01459   0.16465
  11        2S         -0.01293   0.04478   0.01493   0.01058   0.05764
  12 3   H  1S          0.04807   0.07768   0.02589   0.01459  -0.00050
  13        2S         -0.01293   0.04478   0.01493   0.01058  -0.00496
  14 4   H  1S          0.04807   0.00000   0.10357   0.01459  -0.00050
  15        2S         -0.01293   0.00000   0.05970   0.01058  -0.00496
  16 5   Al 1S          0.00003   0.00000   0.00000   0.00012  -0.00000
  17        2S         -0.00099  -0.00000  -0.00000  -0.00432   0.00000
  18        2PX        -0.00000  -0.00019  -0.00000  -0.00000   0.00000
  19        2PY        -0.00000  -0.00000  -0.00019  -0.00000   0.00000
  20        2PZ        -0.00253  -0.00000  -0.00000  -0.00676   0.00000
  21        3S         -0.00426   0.00000   0.00000   0.01171  -0.00019
  22        3PX         0.00000  -0.00115  -0.00000  -0.00000  -0.00010
  23        3PY         0.00000  -0.00000  -0.00115   0.00000  -0.00003
  24        3PZ         0.02168  -0.00000   0.00000   0.04629  -0.00055
  25        4S         -0.00087   0.00000   0.00000   0.00229  -0.00023
  26        4PX         0.00000   0.00095   0.00000   0.00000   0.00004
  27        4PY         0.00000   0.00000   0.00095  -0.00000   0.00001
  28        4PZ         0.01389   0.00000  -0.00000   0.00286  -0.00015
  29 6   H  1S         -0.00005  -0.00000  -0.00003  -0.00018  -0.00000
  30        2S         -0.00233  -0.00000  -0.00112  -0.00497  -0.00003
  31 7   H  1S         -0.00005  -0.00003  -0.00001  -0.00018   0.00000
  32        2S         -0.00233  -0.00084  -0.00028  -0.00497   0.00001
  33 8   H  1S         -0.00005  -0.00003  -0.00001  -0.00018  -0.00000
  34        2S         -0.00233  -0.00084  -0.00028  -0.00497  -0.00003
                          11        12        13        14        15
  11        2S          0.05875
  12 3   H  1S         -0.00496   0.16465
  13        2S         -0.00792   0.05764   0.05875
  14 4   H  1S         -0.00496  -0.00050  -0.00496   0.16465
  15        2S         -0.00792  -0.00496  -0.00792   0.05764   0.05875
  16 5   Al 1S         -0.00000  -0.00000  -0.00000  -0.00000  -0.00000
  17        2S          0.00024   0.00000   0.00024   0.00000   0.00024
  18        2PX         0.00005   0.00000   0.00005   0.00000   0.00000
  19        2PY         0.00002   0.00000   0.00002   0.00000   0.00006
  20        2PZ         0.00021   0.00000   0.00021   0.00000   0.00021
  21        3S         -0.00182  -0.00019  -0.00182  -0.00019  -0.00182
  22        3PX        -0.00109  -0.00010  -0.00109  -0.00000  -0.00000
  23        3PY        -0.00036  -0.00003  -0.00036  -0.00013  -0.00145
  24        3PZ        -0.00141  -0.00055  -0.00141  -0.00055  -0.00141
  25        4S         -0.00280  -0.00023  -0.00280  -0.00023  -0.00280
  26        4PX        -0.00088   0.00004  -0.00088   0.00000  -0.00000
  27        4PY        -0.00029   0.00001  -0.00029   0.00005  -0.00118
  28        4PZ        -0.00175  -0.00015  -0.00175  -0.00015  -0.00175
  29 6   H  1S         -0.00004  -0.00000  -0.00004   0.00000   0.00001
  30        2S         -0.00082  -0.00003  -0.00082   0.00001   0.00040
  31 7   H  1S          0.00001  -0.00000  -0.00004  -0.00000  -0.00004
  32        2S          0.00040  -0.00003  -0.00082  -0.00003  -0.00082
  33 8   H  1S         -0.00004   0.00000   0.00001  -0.00000  -0.00004
  34        2S         -0.00082   0.00001   0.00040  -0.00003  -0.00082
                          16        17        18        19        20
  16 5   Al 1S          2.12034
  17        2S         -0.12302   2.16775
  18        2PX         0.00000   0.00000   1.95836
  19        2PY         0.00000   0.00000   0.00000   1.95836
  20        2PZ         0.00000   0.00000   0.00000   0.00000   1.93135
  21        3S         -0.00060   0.01149   0.00000   0.00000   0.00000
  22        3PX         0.00000   0.00000   0.02310   0.00000   0.00000
  23        3PY         0.00000   0.00000   0.00000   0.02310   0.00000
  24        3PZ         0.00000   0.00000   0.00000   0.00000   0.04005
  25        4S          0.00109  -0.03826   0.00000   0.00000   0.00000
  26        4PX         0.00000   0.00000  -0.00518  -0.00000  -0.00000
  27        4PY         0.00000   0.00000  -0.00000  -0.00518  -0.00000
  28        4PZ         0.00000   0.00000  -0.00000  -0.00000  -0.00433
  29 6   H  1S          0.00000  -0.00047  -0.00000  -0.00081  -0.00008
  30        2S          0.00027  -0.01075  -0.00000  -0.00751  -0.00067
  31 7   H  1S          0.00000  -0.00047  -0.00061  -0.00020  -0.00008
  32        2S          0.00027  -0.01075  -0.00563  -0.00188  -0.00067
  33 8   H  1S          0.00000  -0.00047  -0.00061  -0.00020  -0.00008
  34        2S          0.00027  -0.01075  -0.00563  -0.00188  -0.00067
                          21        22        23        24        25
  21        3S          0.20025
  22        3PX         0.00000   0.15842
  23        3PY         0.00000   0.00000   0.15842
  24        3PZ         0.00000   0.00000   0.00000   0.04978
  25        4S          0.11233   0.00000   0.00000   0.00000   0.11393
  26        4PX         0.00000   0.04211   0.00000   0.00000   0.00000
  27        4PY         0.00000   0.00000   0.04211   0.00000   0.00000
  28        4PZ         0.00000   0.00000   0.00000  -0.00315   0.00000
  29 6   H  1S          0.01594   0.00000   0.04072   0.00313   0.01429
  30        2S          0.05525   0.00000   0.11830   0.00769   0.05271
  31 7   H  1S          0.01594   0.03054   0.01018   0.00313   0.01429
  32        2S          0.05525   0.08872   0.02957   0.00769   0.05271
  33 8   H  1S          0.01594   0.03054   0.01018   0.00313   0.01429
  34        2S          0.05525   0.08872   0.02957   0.00769   0.05271
                          26        27        28        29        30
  26        4PX         0.03385
  27        4PY         0.00000   0.03385
  28        4PZ         0.00000   0.00000   0.00454
  29 6   H  1S          0.00000   0.01644  -0.00030   0.15377
  30        2S          0.00000   0.06283  -0.00066   0.17365   0.47605
  31 7   H  1S          0.01233   0.00411  -0.00030  -0.00000  -0.00081
  32        2S          0.04712   0.01571  -0.00066  -0.00081  -0.01204
  33 8   H  1S          0.01233   0.00411  -0.00030  -0.00000  -0.00081
  34        2S          0.04712   0.01571  -0.00066  -0.00081  -0.01204
                          31        32        33        34
  31 7   H  1S          0.15377
  32        2S          0.17365   0.47605
  33 8   H  1S         -0.00000  -0.00081   0.15377
  34        2S         -0.00081  -0.01204   0.17365   0.47605
     Gross orbital populations:
                           1
   1 1   N  1S          1.98720
   2        2S          0.36079
   3        2PX         0.58583
   4        2PY         0.58583
   5        2PZ         0.69875
   6        3S          1.35933
   7        3PX         0.70872
   8        3PY         0.70872
   9        3PZ         1.00919
  10 2   H  1S          0.43764
  11        2S          0.16079
  12 3   H  1S          0.43764
  13        2S          0.16079
  14 4   H  1S          0.43764
  15        2S          0.16079
  16 5   Al 1S          1.99876
  17        2S          1.97969
  18        2PX         1.96371
  19        2PY         1.96371
  20        2PZ         1.95613
  21        3S          0.54207
  22        3PX         0.45853
  23        3PY         0.45853
  24        3PZ         0.19406
  25        4S          0.38357
  26        4PX         0.18915
  27        4PY         0.18915
  28        4PZ         0.00641
  29 6   H  1S          0.41432
  30        2S          0.89132
  31 7   H  1S          0.41432
  32        2S          0.89132
  33 8   H  1S          0.41432
  34        2S          0.89132
          Condensed to atoms (all electrons):
               1          2          3          4          5          6
     1  N    7.007657   0.308910   0.308910   0.308910   0.097291  -0.009108
     2  H    0.308910   0.338685  -0.018346  -0.018346  -0.011112  -0.000890
     3  H    0.308910  -0.018346   0.338685  -0.018346  -0.011112  -0.000890
     4  H    0.308910  -0.018346  -0.018346   0.338685  -0.011112   0.000417
     5  Al   0.097291  -0.011112  -0.011112  -0.011112  11.120567   0.366308
     6  H   -0.009108  -0.000890  -0.000890   0.000417   0.366308   0.977110
     7  H   -0.009108   0.000417  -0.000890  -0.000890   0.366308  -0.013654
     8  H   -0.009108  -0.000890   0.000417  -0.000890   0.366308  -0.013654
               7          8
     1  N   -0.009108  -0.009108
     2  H    0.000417  -0.000890
     3  H   -0.000890   0.000417
     4  H   -0.000890  -0.000890
     5  Al   0.366308   0.366308
     6  H   -0.013654  -0.013654
     7  H    0.977110  -0.013654
     8  H   -0.013654   0.977110
 Mulliken charges:
               1
     1  N   -1.004354
     2  H    0.401572
     3  H    0.401572
     4  H    0.401572
     5  Al   0.716554
     6  H   -0.305639
     7  H   -0.305639
     8  H   -0.305639
 Sum of Mulliken charges =  -0.00000
 Mulliken charges with hydrogens summed into heavy atoms:
               1
     1  N    0.200362
     5  Al  -0.200362
 Electronic spatial extent (au):  <R**2>=            189.8557
 Charge=             -0.0000 electrons
 Dipole moment (field-independent basis, Debye):
    X=             -0.0000    Y=             -0.0000    Z=             -7.6005  Tot=              7.6005
 Quadrupole moment (field-independent basis, Debye-Ang):
   XX=            -25.4374   YY=            -25.4374   ZZ=            -20.4248
   XY=              0.0000   XZ=              0.0000   YZ=              0.0000
 Traceless Quadrupole moment (field-independent basis, Debye-Ang):
   XX=             -1.6709   YY=             -1.6709   ZZ=              3.3417
   XY=              0.0000   XZ=              0.0000   YZ=              0.0000
 Octapole moment (field-independent basis, Debye-Ang**2):
  XXX=              0.0000  YYY=             -5.3740  ZZZ=            -28.9596  XYY=             -0.0000
  XXY=              5.3740  XXZ=            -15.0809  XZZ=             -0.0000  YZZ=              0.0000
  YYZ=            -15.0809  XYZ=              0.0000
 Hexadecapole moment (field-independent basis, Debye-Ang**3):
 XXXX=            -72.3494 YYYY=            -72.3494 ZZZZ=           -163.0799 XXXY=              0.0000
 XXXZ=              0.0000 YYYX=              0.0000 YYYZ=             -2.7315 ZZZX=              0.0000
 ZZZY=              0.0000 XXYY=            -24.1165 XXZZ=            -42.6243 YYZZ=            -42.6243
 XXYZ=              2.7315 YYXZ=              0.0000 ZZXY=              0.0000
 N-N= 6.441315536341D+01 E-N=-8.385348003859D+02  KE= 2.979817393112D+02
 Symmetry A'   KE= 2.745538644546D+02
 Symmetry A"   KE= 2.342787485667D+01
 Orbital energies and kinetic energies (alpha):
                                 1                 2
   1         (A1)--O         -57.985880         78.659347
   2         (A1)--O         -15.586379         21.913428
   3         (A1)--O          -4.798709         11.059613
   4         (E)--O           -3.102587          9.717341
   5         (E)--O           -3.102587          9.717341
   6         (A1)--O          -3.101994          9.697648
   7         (A1)--O          -1.278052          1.865366
   8         (E)--O           -0.759505          1.326571
   9         (E)--O           -0.759505          1.326571
  10         (A1)--O          -0.644300          1.411357
  11         (A1)--O          -0.488979          0.956236
  12         (E)--O           -0.369209          0.670025
  13         (E)--O           -0.369209          0.670025
  14         (A1)--V           0.124255          0.673250
  15         (E)--V            0.200216          0.416597
  16         (E)--V            0.200216          0.416597
  17         (A1)--V           0.244195          0.694672
  18         (E)--V            0.288720          0.977081
  19         (E)--V            0.288720          0.977081
  20         (A1)--V           0.346697          0.847550
  21         (A1)--V           0.408998          1.661833
  22         (E)--V            0.434102          1.515127
  23         (E)--V            0.434102          1.515127
  24         (A1)--V           0.512339          1.903786
  25         (E)--V            1.127198          2.180075
  26         (E)--V            1.127198          2.180075
  27         (A1)--V           1.231465          2.818788
  28         (E)--V            1.414088          3.149934
  29         (E)--V            1.414088          3.149934
  30         (A1)--V           1.440969          2.841086
  31         (E)--V            1.509140          3.418249
  32         (E)--V            1.509140          3.418249
  33         (A1)--V           1.527873          3.594328
  34         (A1)--V           2.598407          4.746866
 Total kinetic energy from orbitals= 2.979817393112D+02
 Calling FoFJK, ICntrl=      2127 FMM=F ISym2X=1 I1Cent= 0 IOpClX= 0 NMat=1 NMatS=1 NMatT=0.
 ***** Axes restored to original set *****
 -------------------------------------------------------------------
 Center     Atomic                   Forces (Hartrees/Bohr)
 Number     Number              X              Y              Z
 -------------------------------------------------------------------
      1        7           0.002500724    0.002793494    0.000802744
      2        1           0.010113407   -0.003514364    0.004417700
      3        1          -0.003628400    0.007839725    0.007715001
      4        1           0.003220693    0.006516623   -0.009017127
      5       13          -0.019585904   -0.021878903   -0.006287164
      6        1           0.002494481   -0.004169911    0.024754854
      7        1          -0.013932653    0.019736545   -0.007263839
      8        1           0.018817652   -0.007323209   -0.015122168
 -------------------------------------------------------------------
 Cartesian Forces:  Max     0.024754854 RMS     0.011597787

 GradGradGradGradGradGradGradGradGradGradGradGradGradGradGradGradGradGrad
 Berny optimization.
 FormGI is forming the generalized inverse of G from B-inverse, IUseBI=4.
 Internal  Forces:  Max     0.022259968 RMS     0.012035559
 Search for a local minimum.
 Step number   1 out of a maximum of   38
 All quantities printed in internal units (Hartrees-Bohrs-Radians)
 Mixed Optimization -- RFO/linear search
 Second derivative matrix not updated -- first step.
 ITU=  0
     Eigenvalues ---    0.01430   0.06498   0.06498   0.06498   0.06498
     Eigenvalues ---    0.14842   0.14842   0.14842   0.16000   0.16000
     Eigenvalues ---    0.16000   0.16000   0.16000   0.16000   0.17136
     Eigenvalues ---    0.47688   0.47688   0.47688
 RFO step:  Lambda=-2.14070463D-02 EMin= 1.42956740D-02
 Linear search not attempted -- first point.
 Maximum step size (   0.300) exceeded in Quadratic search.
    -- Step size scaled by   0.874
 Iteration  1 RMS(Cart)=  0.07063679 RMS(Int)=  0.00483271
 Iteration  2 RMS(Cart)=  0.00639452 RMS(Int)=  0.00203593
 Iteration  3 RMS(Cart)=  0.00004828 RMS(Int)=  0.00203563
 Iteration  4 RMS(Cart)=  0.00000028 RMS(Int)=  0.00203563
 ClnCor:  largest displacement from symmetrization is 5.13D-09 for atom     4.
 Variable       Old X    -DE/DX   Delta X   Delta X   Delta X     New X
                                 (Linear)    (Quad)   (Total)
    R1        1.88973   0.01152   0.00000   0.02020   0.02020   1.90993
    R2        1.88973   0.01152   0.00000   0.02020   0.02020   1.90993
    R3        1.88973   0.01152   0.00000   0.02020   0.02020   1.90993
    R4        3.68497   0.01872   0.00000   0.08483   0.08483   3.76979
    R5        2.92908   0.02226   0.00000   0.11452   0.11452   3.04359
    R6        2.92908   0.02226   0.00000   0.11452   0.11452   3.04359
    R7        2.92908   0.02226   0.00000   0.11452   0.11452   3.04359
    A1        1.91063  -0.00112   0.00000  -0.00541  -0.00542   1.90521
    A2        1.91063  -0.00112   0.00000  -0.00541  -0.00542   1.90521
    A3        1.91063   0.00112   0.00000   0.00541   0.00539   1.91602
    A4        1.91063  -0.00112   0.00000  -0.00541  -0.00542   1.90521
    A5        1.91063   0.00112   0.00000   0.00541   0.00539   1.91602
    A6        1.91063   0.00112   0.00000   0.00541   0.00539   1.91602
    A7        1.91063  -0.01738   0.00000  -0.08373  -0.08759   1.82304
    A8        1.91063  -0.01738   0.00000  -0.08373  -0.08759   1.82304
    A9        1.91063  -0.01738   0.00000  -0.08373  -0.08759   1.82304
   A10        1.91063   0.01738   0.00000   0.08373   0.07886   1.98949
   A11        1.91063   0.01738   0.00000   0.08373   0.07886   1.98949
   A12        1.91063   0.01738   0.00000   0.08373   0.07886   1.98949
    D1        1.04720   0.00000   0.00000   0.00000  -0.00000   1.04720
    D2        3.14159   0.00000   0.00000   0.00000   0.00000   3.14159
    D3       -1.04720   0.00000   0.00000   0.00000   0.00000  -1.04720
    D4       -1.04720  -0.00000   0.00000  -0.00000   0.00000  -1.04720
    D5        1.04720  -0.00000   0.00000  -0.00000   0.00000   1.04720
    D6        3.14159  -0.00000   0.00000  -0.00000   0.00000   3.14159
    D7        3.14159   0.00000   0.00000  -0.00000   0.00000  -3.14159
    D8       -1.04720   0.00000   0.00000   0.00000   0.00000  -1.04720
    D9        1.04720  -0.00000   0.00000  -0.00000   0.00000   1.04720
         Item               Value     Threshold  Converged?
 Maximum Force            0.022260     0.000450     NO 
 RMS     Force            0.012036     0.000300     NO 
 Maximum Displacement     0.196626     0.001800     NO 
 RMS     Displacement     0.072752     0.001200     NO 
 Predicted change in Energy=-1.147477D-02
 GradGradGradGradGradGradGradGradGradGradGradGradGradGradGradGradGradGrad

                          Input orientation:                          
 ---------------------------------------------------------------------
 Center     Atomic      Atomic             Coordinates (Angstroms)
 Number     Number       Type             X           Y           Z
 ---------------------------------------------------------------------
      1          7           0       -2.747627    0.722708   -0.265514
      2          1           0       -1.899540    0.324147    0.113156
      3          1           0       -3.148249    1.355885    0.412780
      4          1           0       -2.525876    1.235656   -1.107657
      5         13           0       -4.048701   -0.730688   -0.683165
      6          1           0       -4.308699   -1.456083    0.731132
      7          1           0       -5.335823    0.038694   -1.270872
      8          1           0       -3.288075   -1.653246   -1.762222
 ---------------------------------------------------------------------
                    Distance matrix (angstroms):
                    1          2          3          4          5
     1  N    0.000000
     2  H    1.010690   0.000000
     3  H    1.010690   1.647280   0.000000
     4  H    1.010690   1.647280   1.647280   0.000000
     5  Al   1.994889   2.523033   2.523033   2.523033   0.000000
     6  H    2.859611   3.058620   3.058620   3.715516   1.610600
     7  H    2.859611   3.715516   3.058620   3.058620   1.610600
     8  H    2.859611   3.058620   3.715516   3.058620   1.610600
                    6          7          8
     6  H    0.000000
     7  H    2.701362   0.000000
     8  H    2.701362   2.701362   0.000000
 Stoichiometry    AlH6N
 Framework group  C3V[C3(NAl),3SGV(H2)]
 Deg. of freedom     5
 Full point group                 C3V     NOp   6
 Largest Abelian subgroup         CS      NOp   2
 Largest concise Abelian subgroup CS      NOp   2
                         Standard orientation:                         
 ---------------------------------------------------------------------
 Center     Atomic      Atomic             Coordinates (Angstroms)
 Number     Number       Type             X           Y           Z
 ---------------------------------------------------------------------
      1          7           0       -0.000000    0.000000   -1.234540
      2          1           0        0.823640    0.475529   -1.576569
      3          1           0       -0.823640    0.475529   -1.576569
      4          1           0       -0.000000   -0.951058   -1.576569
      5         13           0        0.000000   -0.000000    0.760349
      6          1           0       -0.000000    1.559632    1.162317
      7          1           0       -1.350681   -0.779816    1.162317
      8          1           0        1.350681   -0.779816    1.162317
 ---------------------------------------------------------------------
 Rotational constants (GHZ):          50.0909632           9.4459605           9.4459605
 Standard basis: 3-21G (6D, 7F)
 There are    25 symmetry adapted cartesian basis functions of A'  symmetry.
 There are     9 symmetry adapted cartesian basis functions of A"  symmetry.
 There are    25 symmetry adapted basis functions of A'  symmetry.
 There are     9 symmetry adapted basis functions of A"  symmetry.
    34 basis functions,    60 primitive gaussians,    34 cartesian basis functions
    13 alpha electrons       13 beta electrons
       nuclear repulsion energy        63.0308877525 Hartrees.
 NAtoms=    8 NActive=    8 NUniq=    4 SFac= 4.00D+00 NAtFMM=   60 NAOKFM=F Big=F
 Integral buffers will be    131072 words long.
 Raffenetti 1 integral format.
 Two-electron integral symmetry is turned on.
 One-electron integrals computed using PRISM.
 NBasis=    34 RedAO= T EigKep=  4.26D-02  NBF=    25     9
 NBsUse=    34 1.00D-06 EigRej= -1.00D+00 NBFU=    25     9
 Initial guess from the checkpoint file:  "NH3_AlH3_opt.chk"
 B after Tr=     0.000000   -0.000000   -0.000000
         Rot=    1.000000    0.000000    0.000000   -0.000000 Ang=   0.00 deg.
 Initial guess orbital symmetries:
       Occupied  (A1) (A1) (A1) (E) (E) (A1) (A1) (E) (E) (A1)
                 (A1) (E) (E)
       Virtual   (A1) (E) (E) (A1) (E) (E) (A1) (A1) (E) (E) (A1)
                 (E) (E) (A1) (E) (E) (A1) (E) (E) (A1) (A1)
 ExpMin= 6.39D-02 ExpMax= 7.76D+02 ExpMxC= 7.76D+02 IAcc=3 IRadAn=         5 AccDes= 0.00D+00
 Harris functional with IExCor=  205 and IRadAn=       5 diagonalized for initial guess.
 HarFok:  IExCor=  205 AccDes= 0.00D+00 IRadAn=         5 IDoV= 1 UseB2=F ITyADJ=14
 ICtDFT=  3500011 ScaDFX=  1.000000  1.000000  1.000000  1.000000
 FoFCou: FMM=F IPFlag=           0 FMFlag=      100000 FMFlg1=           0
         NFxFlg=           0 DoJE=T BraDBF=F KetDBF=T FulRan=T
         wScrn=  0.000000 ICntrl=       500 IOpCl=  0 I1Cent=   200000004 NGrid=           0
         NMat0=    1 NMatS0=      1 NMatT0=    0 NMatD0=    1 NMtDS0=    0 NMtDT0=    0
 Petite list used in FoFCou.
 Keep R1 ints in memory in symmetry-blocked form, NReq=990657.
 Requested convergence on RMS density matrix=1.00D-08 within 128 cycles.
 Requested convergence on MAX density matrix=1.00D-06.
 Requested convergence on             energy=1.00D-06.
 No special actions if energy rises.
 SCF Done:  E(RHF) =  -298.222542333     A.U. after    8 cycles
            NFock=  8  Conv=0.57D-08     -V/T= 2.0016
 Calling FoFJK, ICntrl=      2127 FMM=F ISym2X=1 I1Cent= 0 IOpClX= 0 NMat=1 NMatS=1 NMatT=0.
 ***** Axes restored to original set *****
 -------------------------------------------------------------------
 Center     Atomic                   Forces (Hartrees/Bohr)
 Number     Number              X              Y              Z
 -------------------------------------------------------------------
      1        7           0.004422982    0.004940798    0.001419797
      2        1           0.001016103   -0.000248722    0.000435597
      3        1          -0.000267719    0.000812028    0.000743646
      4        1           0.000372154    0.000688418   -0.000819545
      5       13          -0.013339931   -0.014901689   -0.004282178
      6        1           0.002604639    0.001738081    0.004870078
      7        1          -0.000161762    0.005764033   -0.000522009
      8        1           0.005353533    0.001207052   -0.001845386
 -------------------------------------------------------------------
 Cartesian Forces:  Max     0.014901689 RMS     0.004868100

 GradGradGradGradGradGradGradGradGradGradGradGradGradGradGradGradGradGrad
 Berny optimization.
 Using GEDIIS/GDIIS optimizer.
 FormGI is forming the generalized inverse of G from B-inverse, IUseBI=4.
 Internal  Forces:  Max     0.009163650 RMS     0.004289125
 Search for a local minimum.
 Step number   2 out of a maximum of   38
 All quantities printed in internal units (Hartrees-Bohrs-Radians)
 Mixed Optimization -- RFO/linear search
 Update second derivatives using D2CorX and points    1    2
 DE= -1.23D-02 DEPred=-1.15D-02 R= 1.07D+00
 TightC=F SS=  1.41D+00  RLast= 2.99D-01 DXNew= 5.0454D-01 8.9805D-01
 Trust test= 1.07D+00 RLast= 2.99D-01 DXMaxT set to 5.05D-01
 ITU=  1  0
 Use linear search instead of GDIIS.
     Eigenvalues ---    0.01430   0.06445   0.06445   0.07341   0.07341
     Eigenvalues ---    0.11755   0.14842   0.14842   0.15992   0.16000
     Eigenvalues ---    0.16000   0.16000   0.16000   0.16996   0.17631
     Eigenvalues ---    0.47688   0.47688   0.48383
 RFO step:  Lambda=-1.52159061D-03 EMin= 1.42956740D-02
 Quartic linear search produced a step of  0.48659.
 Iteration  1 RMS(Cart)=  0.05390612 RMS(Int)=  0.00508077
 Iteration  2 RMS(Cart)=  0.00439150 RMS(Int)=  0.00365903
 Iteration  3 RMS(Cart)=  0.00007665 RMS(Int)=  0.00365885
 Iteration  4 RMS(Cart)=  0.00000170 RMS(Int)=  0.00365885
 Iteration  5 RMS(Cart)=  0.00000004 RMS(Int)=  0.00365885
 ClnCor:  largest displacement from symmetrization is 3.68D-09 for atom     3.
 Variable       Old X    -DE/DX   Delta X   Delta X   Delta X     New X
                                 (Linear)    (Quad)   (Total)
    R1        1.90993   0.00111   0.00983  -0.00654   0.00329   1.91322
    R2        1.90993   0.00111   0.00983  -0.00654   0.00329   1.91322
    R3        1.90993   0.00111   0.00983  -0.00654   0.00329   1.91322
    R4        3.76979   0.00850   0.04128   0.02829   0.06956   3.83936
    R5        3.04359   0.00307   0.05572  -0.03100   0.02472   3.06831
    R6        3.04359   0.00307   0.05572  -0.03100   0.02472   3.06831
    R7        3.04359   0.00307   0.05572  -0.03100   0.02472   3.06831
    A1        1.90521  -0.00020  -0.00264   0.00107  -0.00158   1.90363
    A2        1.90521  -0.00020  -0.00264   0.00107  -0.00158   1.90363
    A3        1.91602   0.00020   0.00262  -0.00105   0.00156   1.91758
    A4        1.90521  -0.00020  -0.00264   0.00107  -0.00158   1.90363
    A5        1.91602   0.00020   0.00262  -0.00105   0.00156   1.91758
    A6        1.91602   0.00020   0.00262  -0.00105   0.00156   1.91758
    A7        1.82304  -0.00916  -0.04262  -0.03533  -0.08341   1.73963
    A8        1.82304  -0.00916  -0.04262  -0.03533  -0.08341   1.73963
    A9        1.82304  -0.00916  -0.04262  -0.03533  -0.08341   1.73963
   A10        1.98949   0.00727   0.03837   0.02804   0.05665   2.04614
   A11        1.98949   0.00727   0.03837   0.02804   0.05665   2.04614
   A12        1.98949   0.00727   0.03837   0.02804   0.05665   2.04614
    D1        1.04720  -0.00000   0.00000   0.00000  -0.00000   1.04720
    D2        3.14159   0.00000   0.00000   0.00000   0.00000   3.14159
    D3       -1.04720   0.00000  -0.00000   0.00000   0.00000  -1.04720
    D4       -1.04720  -0.00000   0.00000   0.00000   0.00000  -1.04720
    D5        1.04720   0.00000  -0.00000   0.00000   0.00000   1.04720
    D6        3.14159  -0.00000   0.00000   0.00000   0.00000   3.14159
    D7        3.14159  -0.00000   0.00000   0.00000   0.00000   3.14159
    D8       -1.04720   0.00000   0.00000   0.00000  -0.00000  -1.04720
    D9        1.04720  -0.00000  -0.00000   0.00000   0.00000   1.04720
         Item               Value     Threshold  Converged?
 Maximum Force            0.009164     0.000450     NO 
 RMS     Force            0.004289     0.000300     NO 
 Maximum Displacement     0.137431     0.001800     NO 
 RMS     Displacement     0.055772     0.001200     NO 
 Predicted change in Energy=-2.175345D-03
 GradGradGradGradGradGradGradGradGradGradGradGradGradGradGradGradGradGrad

                          Input orientation:                          
 ---------------------------------------------------------------------
 Center     Atomic      Atomic             Coordinates (Angstroms)
 Number     Number       Type             X           Y           Z
 ---------------------------------------------------------------------
      1          7           0       -2.767715    0.700269   -0.271962
      2          1           0       -1.917549    0.302468    0.107499
      3          1           0       -3.167706    1.335404    0.407470
      4          1           0       -2.544612    1.215035   -1.114731
      5         13           0       -4.092797   -0.779946   -0.697320
      6          1           0       -4.268514   -1.422617    0.783369
      7          1           0       -5.322615    0.111419   -1.271216
      8          1           0       -3.221084   -1.624959   -1.775471
 ---------------------------------------------------------------------
                    Distance matrix (angstroms):
                    1          2          3          4          5
     1  N    0.000000
     2  H    1.012432   0.000000
     3  H    1.012432   1.649191   0.000000
     4  H    1.012432   1.649191   1.649191   0.000000
     5  Al   2.031700   2.559503   2.559503   2.559503   0.000000
     6  H    2.805845   2.993285   2.993285   3.678564   1.623682
     7  H    2.805845   3.678564   2.993285   2.993285   1.623682
     8  H    2.805845   2.993285   3.678564   2.993285   1.623682
                    6          7          8
     6  H    0.000000
     7  H    2.772312   0.000000
     8  H    2.772312   2.772312   0.000000
 Stoichiometry    AlH6N
 Framework group  C3V[C3(NAl),3SGV(H2)]
 Deg. of freedom     5
 Full point group                 C3V     NOp   6
 Largest Abelian subgroup         CS      NOp   2
 Largest concise Abelian subgroup CS      NOp   2
                         Standard orientation:                         
 ---------------------------------------------------------------------
 Center     Atomic      Atomic             Coordinates (Angstroms)
 Number     Number       Type             X           Y           Z
 ---------------------------------------------------------------------
      1          7           0        0.000000    0.000000   -1.242053
      2          1           0        0.824596    0.476080   -1.586157
      3          1           0       -0.824596    0.476080   -1.586157
      4          1           0       -0.000000   -0.952161   -1.586157
      5         13           0       -0.000000   -0.000000    0.789647
      6          1           0        0.000000    1.600595    1.062477
      7          1           0       -1.386156   -0.800298    1.062477
      8          1           0        1.386156   -0.800298    1.062477
 ---------------------------------------------------------------------
 Rotational constants (GHZ):          48.1911313           9.2603497           9.2603497
 Standard basis: 3-21G (6D, 7F)
 There are    25 symmetry adapted cartesian basis functions of A'  symmetry.
 There are     9 symmetry adapted cartesian basis functions of A"  symmetry.
 There are    25 symmetry adapted basis functions of A'  symmetry.
 There are     9 symmetry adapted basis functions of A"  symmetry.
    34 basis functions,    60 primitive gaussians,    34 cartesian basis functions
    13 alpha electrons       13 beta electrons
       nuclear repulsion energy        62.4400675054 Hartrees.
 NAtoms=    8 NActive=    8 NUniq=    4 SFac= 4.00D+00 NAtFMM=   60 NAOKFM=F Big=F
 Integral buffers will be    131072 words long.
 Raffenetti 1 integral format.
 Two-electron integral symmetry is turned on.
 One-electron integrals computed using PRISM.
 NBasis=    34 RedAO= T EigKep=  4.14D-02  NBF=    25     9
 NBsUse=    34 1.00D-06 EigRej= -1.00D+00 NBFU=    25     9
 Initial guess from the checkpoint file:  "NH3_AlH3_opt.chk"
 B after Tr=    -0.000000    0.000000   -0.000000
         Rot=    1.000000    0.000000    0.000000    0.000000 Ang=   0.00 deg.
 Initial guess orbital symmetries:
       Occupied  (A1) (A1) (A1) (E) (E) (A1) (A1) (E) (E) (A1)
                 (A1) (E) (E)
       Virtual   (A1) (E) (E) (A1) (E) (E) (A1) (A1) (E) (E) (A1)
                 (E) (E) (A1) (E) (E) (A1) (E) (E) (A1) (A1)
 ExpMin= 6.39D-02 ExpMax= 7.76D+02 ExpMxC= 7.76D+02 IAcc=3 IRadAn=         5 AccDes= 0.00D+00
 Harris functional with IExCor=  205 and IRadAn=       5 diagonalized for initial guess.
 HarFok:  IExCor=  205 AccDes= 0.00D+00 IRadAn=         5 IDoV= 1 UseB2=F ITyADJ=14
 ICtDFT=  3500011 ScaDFX=  1.000000  1.000000  1.000000  1.000000
 FoFCou: FMM=F IPFlag=           0 FMFlag=      100000 FMFlg1=           0
         NFxFlg=           0 DoJE=T BraDBF=F KetDBF=T FulRan=T
         wScrn=  0.000000 ICntrl=       500 IOpCl=  0 I1Cent=   200000004 NGrid=           0
         NMat0=    1 NMatS0=      1 NMatT0=    0 NMatD0=    1 NMtDS0=    0 NMtDT0=    0
 Petite list used in FoFCou.
 Keep R1 ints in memory in symmetry-blocked form, NReq=990657.
 Requested convergence on RMS density matrix=1.00D-08 within 128 cycles.
 Requested convergence on MAX density matrix=1.00D-06.
 Requested convergence on             energy=1.00D-06.
 No special actions if energy rises.
 SCF Done:  E(RHF) =  -298.224524425     A.U. after    8 cycles
            NFock=  8  Conv=0.57D-08     -V/T= 2.0018
 Calling FoFJK, ICntrl=      2127 FMM=F ISym2X=1 I1Cent= 0 IOpClX= 0 NMat=1 NMatS=1 NMatT=0.
 ***** Axes restored to original set *****
 -------------------------------------------------------------------
 Center     Atomic                   Forces (Hartrees/Bohr)
 Number     Number              X              Y              Z
 -------------------------------------------------------------------
      1        7           0.003730549    0.004167299    0.001197523
      2        1          -0.000972985   -0.000021299   -0.000396595
      3        1           0.000015635   -0.000838140   -0.000633811
      4        1          -0.000477105   -0.000742953    0.000569940
      5       13          -0.000747792   -0.000835339   -0.000240045
      6        1          -0.000517516   -0.000293968   -0.001144532
      7        1           0.000153451   -0.001270428    0.000163273
      8        1          -0.001184237   -0.000165172    0.000484247
 -------------------------------------------------------------------
 Cartesian Forces:  Max     0.004167299 RMS     0.001328187

 GradGradGradGradGradGradGradGradGradGradGradGradGradGradGradGradGradGrad
 Berny optimization.
 Using GEDIIS/GDIIS optimizer.
 FormGI is forming the generalized inverse of G from B-inverse, IUseBI=4.
 Internal  Forces:  Max     0.003520518 RMS     0.001163632
 Search for a local minimum.
 Step number   3 out of a maximum of   38
 All quantities printed in internal units (Hartrees-Bohrs-Radians)
[...]
      6        1           0.000032901    0.000057716   -0.000061625
      7        1           0.000082405   -0.000014326    0.000034864
      8        1          -0.000016289    0.000067219    0.000058545
 -------------------------------------------------------------------
 Cartesian Forces:  Max     0.000271856 RMS     0.000103626
 FormGI is forming the generalized inverse of G from B-inverse, IUseBI=4.

 GradGradGradGradGradGradGradGradGradGradGradGradGradGradGradGradGradGrad
 Berny optimization.
 Internal  Forces:  Max     0.000088669 RMS     0.000061035
 Search for a local minimum.
 Step number   1 out of a maximum of    2
 All quantities printed in internal units (Hartrees-Bohrs-Radians)
 Second derivative matrix not updated -- analytic derivatives used.
 ITU=  0
     Eigenvalues ---    0.00042   0.03042   0.03042   0.04086   0.04086
     Eigenvalues ---    0.08664   0.08664   0.08708   0.12142   0.12142
     Eigenvalues ---    0.12872   0.13413   0.13413   0.13978   0.17196
     Eigenvalues ---    0.48277   0.48277   0.48667
 Angle between quadratic step and forces=  22.95 degrees.
 Linear search not attempted -- first point.
 Iteration  1 RMS(Cart)=  0.00046991 RMS(Int)=  0.00000031
 Iteration  2 RMS(Cart)=  0.00000027 RMS(Int)=  0.00000019
 ClnCor:  largest displacement from symmetrization is 6.77D-09 for atom     4.
 Variable       Old X    -DE/DX   Delta X   Delta X   Delta X     New X
                                 (Linear)    (Quad)   (Total)
    R1        1.91083  -0.00008   0.00000  -0.00026  -0.00026   1.91058
    R2        1.91083  -0.00008   0.00000  -0.00026  -0.00026   1.91058
    R3        1.91083  -0.00008   0.00000  -0.00026  -0.00026   1.91058
    R4        3.86967   0.00009   0.00000   0.00147   0.00147   3.87114
    R5        3.06202  -0.00008   0.00000  -0.00064  -0.00064   3.06137
    R6        3.06202  -0.00008   0.00000  -0.00064  -0.00064   3.06137
    R7        3.06202  -0.00008   0.00000  -0.00064  -0.00064   3.06137
    A1        1.90817   0.00007   0.00000   0.00065   0.00065   1.90882
    A2        1.90817   0.00007   0.00000   0.00065   0.00065   1.90882
    A3        1.91309  -0.00007   0.00000  -0.00065  -0.00065   1.91244
    A4        1.90817   0.00007   0.00000   0.00065   0.00065   1.90882
    A5        1.91309  -0.00007   0.00000  -0.00065  -0.00065   1.91244
    A6        1.91309  -0.00007   0.00000  -0.00065  -0.00065   1.91244
    A7        1.75102  -0.00008   0.00000  -0.00061  -0.00061   1.75041
    A8        1.75102  -0.00008   0.00000  -0.00061  -0.00061   1.75041
    A9        1.75102  -0.00008   0.00000  -0.00061  -0.00061   1.75041
   A10        2.03959   0.00005   0.00000   0.00036   0.00036   2.03995
   A11        2.03959   0.00005   0.00000   0.00036   0.00036   2.03995
   A12        2.03959   0.00005   0.00000   0.00036   0.00036   2.03995
    D1        1.04720   0.00000   0.00000   0.00000   0.00000   1.04720
    D2        3.14159  -0.00000   0.00000   0.00000   0.00000   3.14159
    D3       -1.04720   0.00000   0.00000   0.00000   0.00000  -1.04720
    D4       -1.04720   0.00000   0.00000   0.00000   0.00000  -1.04720
    D5        1.04720  -0.00000   0.00000   0.00000   0.00000   1.04720
    D6        3.14159   0.00000   0.00000   0.00000   0.00000   3.14159
    D7        3.14159   0.00000   0.00000   0.00000   0.00000   3.14159
    D8       -1.04720   0.00000   0.00000   0.00000   0.00000  -1.04720
    D9        1.04720   0.00000   0.00000   0.00000   0.00000   1.04720
         Item               Value     Threshold  Converged?
 Maximum Force            0.000089     0.000450     YES
 RMS     Force            0.000061     0.000300     YES
 Maximum Displacement     0.000822     0.001800     YES
 RMS     Displacement     0.000470     0.001200     YES
 Predicted change in Energy=-4.112676D-07
 Optimization completed.
    -- Stationary point found.
                           ----------------------------
                           !   Optimized Parameters   !
                           ! (Angstroms and Degrees)  !
 --------------------------                            --------------------------
 ! Name  Definition              Value          Derivative Info.                !
 --------------------------------------------------------------------------------
 ! R1    R(1,2)                  1.0112         -DE/DX =   -0.0001              !
 ! R2    R(1,3)                  1.0112         -DE/DX =   -0.0001              !
 ! R3    R(1,4)                  1.0112         -DE/DX =   -0.0001              !
 ! R4    R(1,5)                  2.0477         -DE/DX =    0.0001              !
 ! R5    R(5,6)                  1.6203         -DE/DX =   -0.0001              !
 ! R6    R(5,7)                  1.6203         -DE/DX =   -0.0001              !
 ! R7    R(5,8)                  1.6203         -DE/DX =   -0.0001              !
 ! A1    A(2,1,3)              109.33           -DE/DX =    0.0001              !
 ! A2    A(2,1,4)              109.33           -DE/DX =    0.0001              !
 ! A3    A(2,1,5)              109.612          -DE/DX =   -0.0001              !
 ! A4    A(3,1,4)              109.33           -DE/DX =    0.0001              !
 ! A5    A(3,1,5)              109.612          -DE/DX =   -0.0001              !
 ! A6    A(4,1,5)              109.612          -DE/DX =   -0.0001              !
 ! A7    A(1,5,6)              100.3258         -DE/DX =   -0.0001              !
 ! A8    A(1,5,7)              100.3258         -DE/DX =   -0.0001              !
 ! A9    A(1,5,8)              100.3258         -DE/DX =   -0.0001              !
 ! A10   A(6,5,7)              116.8596         -DE/DX =    0.0                 !
 ! A11   A(6,5,8)              116.8596         -DE/DX =    0.0                 !
 ! A12   A(7,5,8)              116.8596         -DE/DX =    0.0                 !
 ! D1    D(2,1,5,6)             60.0            -DE/DX =    0.0                 !
 ! D2    D(2,1,5,7)            180.0            -DE/DX =    0.0                 !
 ! D3    D(2,1,5,8)            -60.0            -DE/DX =    0.0                 !
 ! D4    D(3,1,5,6)            -60.0            -DE/DX =    0.0                 !
 ! D5    D(3,1,5,7)             60.0            -DE/DX =    0.0                 !
 ! D6    D(3,1,5,8)            180.0            -DE/DX =    0.0                 !
 ! D7    D(4,1,5,6)            180.0            -DE/DX =    0.0                 !
 ! D8    D(4,1,5,7)            -60.0            -DE/DX =    0.0                 !
 ! D9    D(4,1,5,8)             60.0            -DE/DX =    0.0                 !
 --------------------------------------------------------------------------------
 GradGradGradGradGradGradGradGradGradGradGradGradGradGradGradGradGradGrad


 ----------------------------------------------------------------------

 Electric dipole moment (input orientation):
 (Debye = 10**-18 statcoulomb cm , SI units = C m)
                  (au)            (Debye)         (10**-30 SI)
   Tot        0.242135D+01      0.615446D+01      0.205291D+02
   x          0.157921D+01      0.401396D+01      0.133891D+02
   y          0.176410D+01      0.448389D+01      0.149566D+02
   z          0.506934D+00      0.128850D+01      0.429797D+01

 Dipole polarizability, Alpha (input orientation).
 (esu units = cm**3 , SI units = C**2 m**2 J**-1)
 Alpha(0;0):
               (au)            (10**-24 esu)      (10**-40 SI)
   iso        0.275250D+02      0.407878D+01      0.453825D+01
   aniso      0.938982D+01      0.139143D+01      0.154817D+01
   xx         0.266608D+02      0.395072D+01      0.439577D+01
   yx        -0.446175D+01     -0.661163D+00     -0.735643D+00
   yy         0.256708D+02      0.380402D+01      0.423254D+01
   zx        -0.128214D+01     -0.189993D+00     -0.211396D+00
   zy        -0.143224D+01     -0.212236D+00     -0.236145D+00
   zz         0.302433D+02      0.448160D+01      0.498645D+01

 First dipole hyperpolarizability, Beta (input orientation).
 ||, _|_  parallel and perpendicular components, (z) with respect to z axis,
 vector components x,y,z.  Values do not include the 1/n! factor of 1/2.
 (esu units = statvolt**-1 cm**4 , SI units = C**3 m**3 J**-2)
 Beta(0;0,0):
               (au)            (10**-30 esu)      (10**-50 SI)
   || (z)    -0.523804D+01     -0.452526D-01     -0.167951D-01
   _|_(z)    -0.174601D+01     -0.150842D-01     -0.559835D-02
   x         -0.815883D+02     -0.704859D+00     -0.261602D+00
   y         -0.911402D+02     -0.787380D+00     -0.292228D+00
   z         -0.261902D+02     -0.226263D+00     -0.839753D-01
   ||         0.250193D+02      0.216147D+00      0.802209D-01
   xxx       -0.411750D+01     -0.355720D-01     -0.132022D-01
   xxy       -0.235372D+02     -0.203343D+00     -0.754687D-01
   yxy       -0.287665D+02     -0.248521D+00     -0.922359D-01
   yyy       -0.125801D+02     -0.108682D+00     -0.403363D-01
   xxz       -0.724683D+01     -0.626070D-01     -0.232360D-01
   yxz       -0.103206D+02     -0.891624D-01     -0.330917D-01
   yyz       -0.935956D+01     -0.808593D-01     -0.300101D-01
   zxz        0.568794D+01      0.491394D-01      0.182376D-01
   zyz        0.573721D+01      0.495651D-01      0.183956D-01
   zzz        0.787631D+01      0.680452D-01      0.252543D-01

 ----------------------------------------------------------------------

 Dipole orientation:
     7         -3.57534547          3.17193620         -2.52367931
     1         -2.70584947          1.59589626         -1.88230964
     1         -5.37498410          3.20695055         -1.88230964
     1         -2.64520285          4.71296180         -1.88230964
    13         -3.57534547          3.17193620         -6.39335269
     1         -5.13202202          0.59289259         -6.94220705
     1         -5.03052449          5.80957944         -6.94220705
     1         -0.56348991          3.11333658         -6.94220705

 Electric dipole moment (dipole orientation):
 (Debye = 10**-18 statcoulomb cm , SI units = C m)
                  (au)            (Debye)         (10**-30 SI)
   Tot        0.242135D+01      0.615446D+01      0.205291D+02
   x          0.000000D+00      0.000000D+00      0.000000D+00
   y          0.000000D+00      0.000000D+00      0.000000D+00
   z          0.242135D+01      0.615446D+01      0.205291D+02

 Dipole polarizability, Alpha (dipole orientation).
 (esu units = cm**3 , SI units = C**2 m**2 J**-1)
 Alpha(0;0):
               (au)            (10**-24 esu)      (10**-40 SI)
   iso        0.275250D+02      0.407878D+01      0.453825D+01
   aniso      0.938982D+01      0.139143D+01      0.154817D+01
   xx         0.306549D+02      0.454259D+01      0.505431D+01
   yx         0.000000D+00      0.000000D+00      0.000000D+00
   yy         0.306549D+02      0.454259D+01      0.505431D+01
   zx         0.000000D+00      0.000000D+00      0.000000D+00
   zy         0.000000D+00      0.000000D+00      0.000000D+00
   zz         0.212651D+02      0.315116D+01      0.350614D+01

 First dipole hyperpolarizability, Beta (dipole orientation).
 ||, _|_  parallel and perpendicular components, (z) with respect to z axis,
 vector components x,y,z.  Values do not include the 1/n! factor of 1/2.
 (esu units = statvolt**-1 cm**4 , SI units = C**3 m**3 J**-2)
 Beta(0;0,0):
               (au)            (10**-30 esu)      (10**-50 SI)
   || (z)    -0.250193D+02     -0.216147D+00     -0.802209D-01
   _|_(z)    -0.833976D+01     -0.720490D-01     -0.267403D-01
   x          0.000000D+00      0.000000D+00      0.000000D+00
   y          0.000000D+00      0.000000D+00      0.000000D+00
   z         -0.125096D+03     -0.108074D+01     -0.401104D+00
   ||         0.250193D+02      0.216147D+00      0.802209D-01
   xxx        0.806718D+00      0.696941D-02      0.258663D-02
   xxy       -0.471349D-01     -0.407209D-03     -0.151131D-03
   yxy       -0.806718D+00     -0.696941D-02     -0.258663D-02
   yyy        0.471349D-01      0.407209D-03      0.151131D-03
   xxz        0.130872D+02      0.113063D+00      0.419624D-01
   yxz        0.000000D+00      0.000000D+00      0.000000D+00
   yyz        0.130872D+02      0.113063D+00      0.419624D-01
   zxz        0.000000D+00      0.000000D+00      0.000000D+00
   zyz        0.000000D+00      0.000000D+00      0.000000D+00
   zzz       -0.678732D+02     -0.586372D+00     -0.217626D+00

 ----------------------------------------------------------------------
 1\1\GINC-IISERK51\Freq\RHF\3-21G\Al1H6N1\GAUSSIAN\16-Jun-2025\0\\#N Ge
 om=AllCheck Guess=TCheck SCRF=Check GenChk RHF/3-21G Freq\\Title Card 
 Required\\0,1\N,-2.7570249058,0.712209901,-0.2685308189\H,-1.909700092
 2,0.3107447171,0.110057311\H,-3.1603130257,1.3440565594,0.4101378029\H
 ,-2.5369915338,1.223643795,-1.1126180733\Al,-4.0925699503,-0.779692671
 7,-0.6972468245\H,-4.2797820304,-1.4333951939,0.7735209221\H,-5.329610
 1398,0.0944227384,-1.2727352551\H,-3.2365979853,-1.634916682,-1.774946
 6908\\Version=EM64L-G16RevB.01\State=1-A1\HF=-298.2246456\RMSD=5.914e-
 10\RMSF=1.036e-04\ZeroPoint=0.0625813\Thermal=0.0672463\Dipole=1.57921
 22,1.7640968,0.5069343\DipoleDeriv=-0.7394987,-0.256081,-0.0735879,-0.
 256081,-0.7963175,-0.0822032,-0.0735879,-0.0822031,-0.5338781,0.221429
 1,0.0643351,-0.012806,0.0113615,0.3213656,-0.0017608,-0.0086171,0.0199
 234,0.2351829,0.3074948,0.0266273,-0.0146005,0.0691618,0.2460091,-0.03
 121,0.0171574,-0.0093877,0.2244738,0.2704104,0.0192994,0.0590916,0.029
 7385,0.2564243,0.0683653,0.0231447,0.0248589,0.2511429,1.3731649,0.083
 3214,0.0239434,0.0833214,1.3916521,0.0267466,0.0239434,0.0267466,1.306
 2618,-0.4630127,0.0169539,-0.0259837,0.0036767,-0.4614115,-0.016958,0.
 0197358,0.0383761,-0.5206816,-0.4774509,-0.0018254,-0.0025838,0.065549
 8,-0.4935471,0.0286318,-0.0079116,0.0010526,-0.4741078,-0.4925369,0.04
 73692,0.046527,-0.0067288,-0.4641752,0.0083882,0.0061352,-0.0193667,-0
 .4883937\Polar=26.6607591,-4.46175,25.6707946,-1.2821371,-1.4322419,30
 .2433275\PolarDeriv=-3.1850838,0.7420266,0.3864993,-1.2322936,1.780694
 9,-0.7953687,0.9369531,0.2120021,-2.2182396,1.7806952,-0.3070313,-2.73
 34248,-1.1762793,1.780695,-0.2510169,-0.969866,-2.928351,0.2736206,5.9
 265679,-1.285498,-0.0927751,1.8426245,-0.5515587,0.808723,-0.5657361,1
 .294471,-1.3955801,-0.3221982,0.6698424,0.1076373,1.3020413,-0.5678215
 ,0.0925237,1.9721718,-0.1059605,1.4710482,-1.1480962,0.8436083,-0.5320
 857,1.3659041,-0.3521732,-0.281233,-0.2759157,-1.1372501,3.8714762,-0.
 6193867,2.3388969,1.6597095,0.4509878,-0.6889953,1.2938375,-0.6347936,
 2.506464,3.185273,1.3908236,0.9440802,0.322617,-1.5294714,-1.0458771,0
 .6134536,0.0131924,0.731728,2.9476787,-1.008024,-2.3251462,1.4659867,-
 0.4563501,-0.6927924,-1.0851466,0.9947576,2.1634799,-4.0046168,0.26035
 57,0.5810421,0.6626473,0.4308789,0.0477365,-0.3118904,0.3601149,0.8604
 208,0.3341171,0.0477362,0.3446784,-0.0115738,0.3673932,0.0477367,0.281
 1924,-0.1141175,0.2093534,-0.4524153,-1.0657407,-1.5780781,-0.1797092,
 2.8734713,0.1016179,-0.0806267,-0.4881641,-0.70201,-3.4498385,0.027208
 9,2.9566869,-0.6832328,1.3655374,0.045109,1.3655709,-0.3631145,-1.4673
 352,7.6553343,-6.4606483,1.6519995,-1.3426006,-1.3943939,0.0800056,-0.
 9375091,0.8215825,-2.7575691,4.3976785,-0.0377643,-1.2779832,0.9501114
 ,-0.6322205,0.0573441,-0.6514904,-2.6297438,1.5963889,-2.7820581,4.281
 8213,-1.8991812,0.7754065,-2.3567206,-0.0604457,0.9844518,-0.802027,1.
 4982073,-4.4872919,0.1317331,-2.3999442,-0.7552139,-1.2211104,0.018724
 6,-1.0454709,1.7447058,-1.9740401,-5.3461852\HyperPolar=-4.1174982,-23
 .5371772,-28.7665451,-12.5800931,-7.2468291,-10.3206495,-9.3595566,5.6
 879412,5.7372131,7.8763138\Quadrupole=0.5703987,1.2238048,-1.7942035,2
 .9448884,0.8462488,0.9453225\PG=C03V [C3(N1Al1),3SGV(H2)]\NImag=0\\0.5
 8675689,-0.18796289,0.54505205,-0.05401338,-0.06033694,0.73768195,-0.3
 3741862,0.15380759,-0.11731413,0.35008036,0.11366206,-0.10671364,0.048
 59618,-0.15174163,0.12152996,-0.11413960,0.06502926,-0.13239998,0.1254
 2152,-0.06595169,0.12954759,-0.11243533,0.09132452,0.08455244,-0.01469
 051,0.02681757,0.03042415,0.12538007,0.12355881,-0.21685601,-0.1651736
 0,0.00342031,-0.01108064,-0.01476691,-0.11738089,0.21814756,0.10861986
 ,-0.14863586,-0.24724090,-0.01017704,0.01316550,0.01533647,-0.11451861
 ,0.16860060,0.25763028,-0.08566637,-0.03339332,0.09360736,0.01114652,0
 .02221680,-0.03813223,-0.00320114,-0.01297856,0.01520271,0.07957638,-0
 .02548208,-0.16497047,0.18454653,-0.00826259,-0.00889916,0.01482446,0.
 00688368,0.01746114,-0.03003304,0.03100579,0.16252642,0.06636541,0.151
 57571,-0.32589539,0.00672929,0.00894579,-0.01268203,0.00690081,0.02009
 358,-0.02469467,-0.07932859,-0.17908545,0.35905510,-0.04627451,-0.0128
 7417,-0.00369955,-0.01114656,-0.01238027,-0.00464085,0.00693632,0.0038
 9067,0.00067121,-0.00167181,-0.00516249,0.00004654,0.19966268,-0.01287
 417,-0.04913100,-0.00413267,0.00294286,0.00729179,0.00083223,-0.008412
 82,-0.00911425,-0.00441708,-0.00818213,-0.00708869,-0.00079753,-0.0410
 0655,0.19056423,-0.00369955,-0.00413267,-0.03593717,-0.00585253,-0.005
 44010,0.00061702,-0.00851508,-0.01072937,-0.00105984,0.01044452,0.0117
 8709,0.00552274,-0.01178372,-0.01316329,0.23258895,-0.00084966,-0.0067
 2853,0.00723596,0.00186675,0.00183103,-0.00000206,-0.00046508,0.000637
 67,-0.00012738,-0.00134795,-0.00154664,-0.00097108,-0.02087921,-0.0031
 6340,0.00780074,0.01696718,-0.00473348,-0.00527346,0.00867079,0.000867
 92,-0.00004683,-0.00021691,0.00135634,0.00212752,0.00023174,-0.0016164
 3,-0.00146503,-0.00113075,-0.00394285,-0.03480020,0.03405896,0.0059237
 1,0.03493072,0.00036610,0.00035623,0.00327262,0.00034187,0.00015424,-0
 .00067749,0.00037040,0.00087931,-0.00052001,-0.00073074,-0.00083986,0.
 00000958,0.01048474,0.03730739,-0.10490722,-0.01291152,-0.04335461,0.1
 1065026,-0.00893845,0.00172744,-0.00501261,-0.00073454,-0.00195861,-0.
 00021250,0.00021214,0.00058992,0.00065235,0.00140587,0.00133129,0.0001
 0652,-0.07640829,0.04066577,-0.02624954,0.00259909,0.00080250,-0.00043
 955,0.08435505,-0.00839644,0.00488257,-0.00358794,-0.00160442,-0.00218
 211,-0.00047131,0.00143391,0.00064985,0.00116916,0.00172769,0.00040533
 ,-0.00000644,0.04462109,-0.05165478,0.02075736,0.00392277,0.00033658,0
 .00334638,-0.04764920,0.04813913,-0.00421206,0.00055614,0.00120537,-0.
 00024051,-0.00061630,0.00011324,0.00132133,0.00132332,0.00028044,-0.00
 066054,-0.00066834,-0.00066878,-0.02656230,0.01913831,-0.03252356,-0.0
 0610177,0.00550480,-0.00223190,0.03208761,-0.02211161,0.03005397,0.004
 82604,-0.00590064,-0.00535610,0.00089660,0.00155304,0.00128157,-0.0017
 3647,-0.00173792,-0.00032311,-0.00024150,0.00123304,0.00015110,-0.0502
 1862,0.03003045,0.03785516,0.00210890,0.00134228,0.00251869,-0.0024908
 7,0.00594461,0.00436825,0.04685592,0.00222818,-0.00699004,-0.00858236,
 0.00056996,0.00010063,0.00072088,-0.00202231,-0.00133517,-0.00008102,0
 .00122017,0.00203047,0.00040510,0.02685459,-0.04606709,-0.03313798,-0.
 00087662,0.00419070,0.00215093,0.00449090,-0.00057657,-0.00312632,-0.0
 3246486,0.04864708,0.00071322,-0.00441188,-0.00068649,0.00109154,0.001
 14638,0.00014519,-0.00053544,-0.00022692,0.00026824,-0.00040249,-0.000
 53138,-0.00064655,0.03548393,-0.03476736,-0.06430092,0.00507710,-0.003
 76402,-0.00559583,-0.00093227,0.00090439,0.00377120,-0.04049557,0.0416
 5077,0.06704516\\-0.00024336,-0.00027186,-0.00007812,0.00009793,0.0000
 3169,0.00003758,0.00002584,0.00009125,0.00005488,0.00006177,0.00008431
 ,-0.00003290,0.00015685,0.00017521,0.00005035,-0.00003290,-0.00005772,
 0.00006162,-0.00008240,0.00001433,-0.00003486,0.00001629,-0.00006722,-
 0.00005855\\\@


 DO YOU KNOW THAT THE LETTERS IN "EPISCOPAL", WHEN
 REARRANGED, SPELL "PEPSI COLA"?
 Job cpu time:       0 days  0 hours  0 minutes  0.8 seconds.
 Elapsed time:       0 days  0 hours  0 minutes  0.8 seconds.
 File lengths (MBytes):  RWF=      6 Int=      0 D2E=      0 Chk=      1 Scr=      1
 Normal termination of Gaussian 16 at Mon Jun 16 21:56:39 2025.
