 Entering Gaussian System, Link 0=g16
 Input=/home/gaussian/Documents/Summer_Internship/Acid_Base_adduct/Adduct/NH3 - AlH3/NH3_only_adduct_sp.com
 Output=/home/gaussian/Documents/Summer_Internship/Acid_Base_adduct/Adduct/NH3 - AlH3/NH3_only_adduct_sp.log
 Initial command:
 /usr/local/g16/l1.exe "/home/gaussian/tmp/Gau-79681.inp" -scrdir="/home/gaussian/tmp/"
 Entering Link 1 = /usr/local/g16/l1.exe PID=     79684.
  
 Copyright (c) 1988-2017, Gaussian, Inc.  All Rights Reserved.
  
 This is part of the Gaussian(R) 16 program.  It is based on
 the Gaussian(R) 09 system (copyright 2009, Gaussian, Inc.),
 the Gaussian(R) 03 system (copyright 2003, Gaussian, Inc.),
 the Gaussian(R) 98 system (copyright 1998, Gaussian, Inc.),
 the Gaussian(R) 94 system (copyright 1995, Gaussian, Inc.),
 the Gaussian 92(TM) system (copyright 1992, Gaussian, Inc.),
 the Gaussian 90(TM) system (copyright 1990, Gaussian, Inc.),
 the Gaussian 88(TM) system (copyright 1988, Gaussian, Inc.),
 the Gaussian 86(TM) system (copyright 1986, Carnegie Mellon
 University), and the Gaussian 82(TM) system (copyright 1983,
 Carnegie Mellon University). Gaussian is a federally registered
 trademark of Gaussian, Inc.
  
 This software contains proprietary and confidential information,
 including trade secrets, belonging to Gaussian, Inc.
  
 This software is provided under written license and may be
 used, copied, transmitted, or stored only in accord with that
 written license.
  
 The following legend is applicable only to US Government
 contracts under FAR:
  
                    RESTRICTED RIGHTS LEGEND
  
 Use, reproduction and disclosure by the US Government is
 subject to restrictions as set forth in subparagraphs (a)
 and (c) of the Commercial Computer Software - Restricted
 Rights clause in FAR 52.227-19.
  
 Gaussian, Inc.
 340 Quinnipiac St., Bldg. 40, Wallingford CT 06492
  
  
 ---------------------------------------------------------------
 Warning -- This program may not be used in any manner that
 competes with the business of Gaussian, Inc. or will provide
 assistance to any competitor of Gaussian, Inc.  The licensee
 of this program is prohibited from giving any competitor of
 Gaussian, Inc. access to this program.  By using this program,
 the user acknowledges that Gaussian, Inc. is engaged in the
 business of creating and licensing software in the field of
 computational chemistry and represents and warrants to the
 licensee that it is not a competitor of Gaussian, Inc. and that
 it will not use this program in any manner prohibited above.
 ---------------------------------------------------------------
  

 Cite this work as:
 Gaussian 16, Revision B.01,
 M. J. Frisch, G. W. Trucks, H. B. Schlegel, G. E. Scuseria, 
 M. A. Robb, J. R. Cheeseman, G. Scalmani, V. Barone, 
 G. A. Petersson, H. Nakatsuji, X. Li, M. Caricato, A. V. Marenich, 
 J. Bloino, B. G. Janesko, R. Gomperts, B. Mennucci, H. P. Hratchian, 
 J. V. Ortiz, A. F. Izmaylov, J. L. Sonnenberg, D. Williams-Young, 
 F. Ding, F. Lipparini, F. Egidi, J. Goings, B. Peng, A. Petrone, 
 T. Henderson, D. Ranasinghe, V. G. Zakrzewski, J. Gao, N. Rega, 
 G. Zheng, W. Liang, M. Hada, M. Ehara, K. Toyota, R. Fukuda, 
 J. Hasegawa, M. Ishida, T. Nakajima, Y. Honda, O. Kitao, H. Nakai, 
 T. Vreven, K. Throssell, J. A. Montgomery, Jr., J. E. Peralta, 
 F. Ogliaro, M. J. Bearpark, J. J. Heyd, E. N. Brothers, K. N. Kudin, 
 V. N. Staroverov, T. A. Keith, R. Kobayashi, J. Normand, 
 K. Raghavachari, A. P. Rendell, J. C. Burant, S. S. Iyengar, 
 J. Tomasi, M. Cossi, J. M. Millam, M. Klene, C. Adamo, R. Cammi, 
 J. W. Ochterski, R. L. Martin, K. Morokuma, O. Farkas, 
 J. B. Foresman, and D. J. Fox, Gaussian, Inc., Wallingford CT, 2016.
 
 ******************************************
 Gaussian 16:  EM64L-G16RevB.01 20-Dec-2017
                16-Jun-2025 
 ******************************************
 %chk=NH3_only_adduct_sp.chk
 -------------------------------------
 # hf/3-21g pop=full geom=connectivity
 -------------------------------------
 1/38=1,57=2,172=1/1;
 2/12=2,17=6,18=5,40=1/2;
 3/5=5,11=9,25=1,30=1/1,2,3;
 4//1;
 5/5=2,38=5/2;
 6/7=3,28=1/1;
 99/5=1,9=1/99;
 -------------------
 Title Card Required
 -------------------
 Symbolic Z-matrix:
 Charge =  0 Multiplicity = 1
 N                     0.        0.       -1.2545 
 H                    -0.47625   0.8249   -1.5939 
 H                    -0.47625  -0.8249   -1.5939 
 H                     0.95251   0.       -1.5939 
 
                          Input orientation:                          
 ---------------------------------------------------------------------
 Center     Atomic      Atomic             Coordinates (Angstroms)
 Number     Number       Type             X           Y           Z
 ---------------------------------------------------------------------
      1          7           0        0.000000    0.000000   -1.254501
      2          1           0       -0.476254    0.824896   -1.593899
      3          1           0       -0.476254   -0.824896   -1.593899
      4          1           0        0.952508    0.000000   -1.593899
 ---------------------------------------------------------------------
                    Distance matrix (angstroms):
                    1          2          3          4
     1  N    0.000000
     2  H    1.011169   0.000000
     3  H    1.011169   1.649792   0.000000
     4  H    1.011169   1.649792   1.649792   0.000000
 Stoichiometry    H3N
 Framework group  C3V[C3(N),3SGV(H)]
 Deg. of freedom     2
 Full point group                 C3V     NOp   6
 Largest Abelian subgroup         CS      NOp   2
 Largest concise Abelian subgroup CS      NOp   2
                         Standard orientation:                         
 ---------------------------------------------------------------------
 Center     Atomic      Atomic             Coordinates (Angstroms)
 Number     Number       Type             X           Y           Z
 ---------------------------------------------------------------------
      1          7           0        0.000000    0.000000    0.101819
      2          1           0       -0.000000    0.952508   -0.237579
      3          1           0       -0.824896   -0.476254   -0.237579
      4          1           0        0.824896   -0.476254   -0.237579
 ---------------------------------------------------------------------
 Rotational constants (GHZ):         304.8146026         304.8146026         184.2356355
 Standard basis: 3-21G (6D, 7F)
 There are    11 symmetry adapted cartesian basis functions of A'  symmetry.
 There are     4 symmetry adapted cartesian basis functions of A"  symmetry.
 There are    11 symmetry adapted basis functions of A'  symmetry.
 There are     4 symmetry adapted basis functions of A"  symmetry.
    15 basis functions,    24 primitive gaussians,    15 cartesian basis functions
     5 alpha electrons        5 beta electrons
       nuclear repulsion energy        11.9522385320 Hartrees.
 NAtoms=    4 NActive=    4 NUniq=    2 SFac= 4.00D+00 NAtFMM=   60 NAOKFM=F Big=F
 Integral buffers will be    131072 words long.
 Raffenetti 1 integral format.
 Two-electron integral symmetry is turned on.
 One-electron integrals computed using PRISM.
 NBasis=    15 RedAO= T EigKep=  7.05D-02  NBF=    11     4
 NBsUse=    15 1.00D-06 EigRej= -1.00D+00 NBFU=    11     4
 ExpMin= 1.83D-01 ExpMax= 2.43D+02 ExpMxC= 2.43D+02 IAcc=3 IRadAn=         5 AccDes= 0.00D+00
 Harris functional with IExCor=  205 and IRadAn=       5 diagonalized for initial guess.
 HarFok:  IExCor=  205 AccDes= 0.00D+00 IRadAn=         5 IDoV= 1 UseB2=F ITyADJ=14
 ICtDFT=  3500011 ScaDFX=  1.000000  1.000000  1.000000  1.000000
 FoFCou: FMM=F IPFlag=           0 FMFlag=      100000 FMFlg1=           0
         NFxFlg=           0 DoJE=T BraDBF=F KetDBF=T FulRan=T
         wScrn=  0.000000 ICntrl=       500 IOpCl=  0 I1Cent=   200000004 NGrid=           0
         NMat0=    1 NMatS0=      1 NMatT0=    0 NMatD0=    1 NMtDS0=    0 NMtDT0=    0
 Petite list used in FoFCou.
 Initial guess orbital symmetries:
       Occupied  (A1) (A1) (E) (E) (A1)
       Virtual   (A1) (E) (E) (E) (E) (A1) (A1) (E) (E) (A1)
 The electronic state of the initial guess is 1-A1.
 Keep R1 ints in memory in symmetry-blocked form, NReq=811288.
 Requested convergence on RMS density matrix=1.00D-08 within 128 cycles.
 Requested convergence on MAX density matrix=1.00D-06.
 Requested convergence on             energy=1.00D-06.
 No special actions if energy rises.
 SCF Done:  E(RHF) =  -55.8716824897     A.U. after   10 cycles
            NFock= 10  Conv=0.34D-09     -V/T= 2.0024

 **********************************************************************

            Population analysis using the SCF Density.

 **********************************************************************

 Orbital symmetries:
       Occupied  (A1) (A1) (E) (E) (A1)
       Virtual   (A1) (E) (E) (E) (E) (A1) (A1) (E) (E) (A1)
 The electronic state is 1-A1.
 Alpha  occ. eigenvalues --  -15.43990  -1.12553  -0.61467  -0.61467  -0.39714
 Alpha virt. eigenvalues --    0.27048   0.37224   0.37224   1.16784   1.16784
 Alpha virt. eigenvalues --    1.31829   1.41562   1.59003   1.59003   2.58774
     Molecular Orbital Coefficients:
                           1         2         3         4         5
                        (A1)--O   (A1)--O   (E)--O    (E)--O    (A1)--O
     Eigenvalues --   -15.43990  -1.12553  -0.61467  -0.61467  -0.39714
   1 1   N  1S          0.98551  -0.21646   0.00000   0.00000  -0.06873
   2        2S          0.09794   0.19770   0.00000   0.00000   0.06721
   3        2PX         0.00000   0.00000   0.38063   0.00000   0.00000
   4        2PY        -0.00000  -0.00000   0.00000   0.38063   0.00000
   5        2PZ        -0.00333  -0.07498   0.00000  -0.00000   0.46108
   6        3S         -0.04956   0.65535   0.00000  -0.00000   0.30434
   7        3PX         0.00000   0.00000   0.34095   0.00000   0.00000
   8        3PY         0.00000   0.00000   0.00000   0.34095   0.00000
   9        3PZ         0.00653  -0.08087   0.00000   0.00000   0.60212
  10 2   H  1S          0.00150   0.12035   0.00000   0.26711  -0.04679
  11        2S          0.00871   0.02359   0.00000   0.22666  -0.04566
  12 3   H  1S          0.00150   0.12035  -0.23132  -0.13355  -0.04679
  13        2S          0.00871   0.02359  -0.19629  -0.11333  -0.04566
  14 4   H  1S          0.00150   0.12035   0.23132  -0.13355  -0.04679
  15        2S          0.00871   0.02359   0.19629  -0.11333  -0.04566
                           6         7         8         9        10
                        (A1)--V   (E)--V    (E)--V    (E)--V    (E)--V
     Eigenvalues --     0.27048   0.37224   0.37224   1.16784   1.16784
   1 1   N  1S         -0.14755   0.00000  -0.00000   0.00000   0.00000
   2        2S          0.03465   0.00000   0.00000  -0.00000   0.00000
   3        2PX         0.00000   0.29903   0.00000   0.00000  -0.06607
   4        2PY         0.00000   0.00000  -0.29903   0.06607   0.00000
   5        2PZ        -0.13054   0.00000  -0.00000   0.00000   0.00000
   6        3S          1.55916   0.00000   0.00000  -0.00000   0.00000
   7        3PX         0.00000   1.00721   0.00000   0.00000   0.72450
   8        3PY         0.00000   0.00000  -1.00721  -0.72450   0.00000
   9        3PZ        -0.37773   0.00000  -0.00000   0.00000   0.00000
  10 2   H  1S         -0.03292   0.00000   0.04318   1.08389   0.00000
  11        2S         -0.79454   0.00000   1.47524  -0.58316   0.00000
  12 3   H  1S         -0.03292   0.03740  -0.02159  -0.54195   0.93868
  13        2S         -0.79454   1.27759  -0.73762   0.29158  -0.50503
  14 4   H  1S         -0.03292  -0.03740  -0.02159  -0.54195  -0.93868
  15        2S         -0.79454  -1.27759  -0.73762   0.29158   0.50503
                          11        12        13        14        15
                        (A1)--V   (A1)--V   (E)--V    (E)--V    (A1)--V
     Eigenvalues --     1.31829   1.41562   1.59003   1.59003   2.58774
   1 1   N  1S          0.10043   0.03256  -0.00000   0.00000   0.02958
   2        2S         -0.13597  -0.05100  -0.00000   0.00000  -1.79131
   3        2PX         0.00000   0.00000   0.00000  -1.11482   0.00000
   4        2PY        -0.00000  -0.00000  -1.11482   0.00000   0.00000
   5        2PZ         0.16643  -1.05331   0.00000   0.00000   0.09692
   6        3S         -0.19576  -0.25001   0.00000   0.00000   2.58370
   7        3PX         0.00000   0.00000   0.00000   1.40490   0.00000
   8        3PY         0.00000   0.00000   1.40490   0.00000  -0.00000
   9        3PZ         0.20475   1.06030  -0.00000   0.00000  -0.41293
  10 2   H  1S          0.79372   0.09684   0.17806   0.00000  -0.23389
  11        2S         -0.34657   0.10273  -0.90681   0.00000  -0.44598
  12 3   H  1S          0.79372   0.09684  -0.08903  -0.15420  -0.23389
  13        2S         -0.34657   0.10273   0.45341   0.78532  -0.44598
  14 4   H  1S          0.79372   0.09684  -0.08903   0.15420  -0.23389
  15        2S         -0.34657   0.10273   0.45341  -0.78532  -0.44598
     Density Matrix:
                           1         2         3         4         5
   1 1   N  1S          2.04563
   2        2S          0.09822   0.10639
   3        2PX        -0.00000  -0.00000   0.28976
   4        2PY         0.00000   0.00000  -0.00000   0.28976
   5        2PZ        -0.03748   0.03168  -0.00000   0.00000   0.43646
   6        3S         -0.42322   0.29033   0.00000  -0.00000   0.18271
   7        3PX         0.00000  -0.00000   0.25955  -0.00000  -0.00000
   8        3PY        -0.00000   0.00000   0.00000   0.25955   0.00000
   9        3PZ        -0.03488   0.05024  -0.00000   0.00000   0.56734
  10 2   H  1S         -0.04272   0.04159   0.00000   0.20334  -0.06121
  11        2S          0.01324   0.00489   0.00000   0.17255  -0.04570
  12 3   H  1S         -0.04272   0.04159  -0.17609  -0.10167  -0.06121
  13        2S          0.01324   0.00489  -0.14943  -0.08627  -0.04570
  14 4   H  1S         -0.04272   0.04159   0.17609  -0.10167  -0.06121
  15        2S          0.01324   0.00489   0.14943  -0.08627  -0.04570
                           6         7         8         9        10
   6        3S          1.04913
   7        3PX        -0.00000   0.23250
   8        3PY         0.00000   0.00000   0.23250
   9        3PZ         0.25985  -0.00000   0.00000   0.73826
  10 2   H  1S          0.12912   0.00000   0.18214  -0.07579   0.17604
  11        2S          0.00226   0.00000   0.15456  -0.05868   0.13106
  12 3   H  1S          0.12912  -0.15774  -0.09107  -0.07579  -0.03799
  13        2S          0.00226  -0.13385  -0.07728  -0.05868  -0.05057
  14 4   H  1S          0.12912   0.15774  -0.09107  -0.07579  -0.03799
  15        2S          0.00226   0.13385  -0.07728  -0.05868  -0.05057
                          11        12        13        14        15
  11        2S          0.10818
  12 3   H  1S         -0.05057   0.17604
  13        2S         -0.04594   0.13106   0.10818
  14 4   H  1S         -0.05057  -0.03799  -0.05057   0.17604
  15        2S         -0.04594  -0.05057  -0.04594   0.13106   0.10818
    Full Mulliken population analysis:
                           1         2         3         4         5
   1 1   N  1S          2.04563
   2        2S          0.01914   0.10639
   3        2PX         0.00000   0.00000   0.28976
   4        2PY         0.00000   0.00000   0.00000   0.28976
   5        2PZ         0.00000   0.00000   0.00000   0.00000   0.43646
   6        3S         -0.07797   0.21839   0.00000   0.00000   0.00000
   7        3PX         0.00000   0.00000   0.13393   0.00000   0.00000
   8        3PY         0.00000   0.00000   0.00000   0.13393   0.00000
   9        3PZ         0.00000   0.00000   0.00000   0.00000   0.29275
  10 2   H  1S         -0.00093   0.00735  -0.00000   0.04702   0.00504
  11        2S          0.00093   0.00170  -0.00000   0.02649   0.00250
  12 3   H  1S         -0.00093   0.00735   0.03526   0.01175   0.00504
  13        2S          0.00093   0.00170   0.01987   0.00662   0.00250
  14 4   H  1S         -0.00093   0.00735   0.03526   0.01175   0.00504
  15        2S          0.00093   0.00170   0.01987   0.00662   0.00250
                           6         7         8         9        10
   6        3S          1.04913
   7        3PX         0.00000   0.23250
   8        3PY         0.00000   0.00000   0.23250
   9        3PZ         0.00000   0.00000   0.00000   0.73826
  10 2   H  1S          0.04625  -0.00000   0.09423   0.01397   0.17604
  11        2S          0.00145  -0.00000   0.07479   0.01012   0.08465
  12 3   H  1S          0.04625   0.07067   0.02356   0.01397  -0.00057
  13        2S          0.00145   0.05610   0.01870   0.01012  -0.00752
  14 4   H  1S          0.04625   0.07067   0.02356   0.01397  -0.00057
  15        2S          0.00145   0.05610   0.01870   0.01012  -0.00752
                          11        12        13        14        15
  11        2S          0.10818
  12 3   H  1S         -0.00752   0.17604
  13        2S         -0.01886   0.08465   0.10818
  14 4   H  1S         -0.00752  -0.00057  -0.00752   0.17604
  15        2S         -0.01886  -0.00752  -0.01886   0.08465   0.10818
     Gross orbital populations:
                           1
   1 1   N  1S          1.98681
   2        2S          0.37107
   3        2PX         0.53395
   4        2PY         0.53395
   5        2PZ         0.75184
   6        3S          1.33265
   7        3PX         0.61996
   8        3PY         0.61996
   9        3PZ         1.10327
  10 2   H  1S          0.45744
  11        2S          0.25807
  12 3   H  1S          0.45744
  13        2S          0.25807
  14 4   H  1S          0.45744
  15        2S          0.25807
          Condensed to atoms (all electrons):
               1          2          3          4
     1  N    6.860732   0.330914   0.330914   0.330914
     2  H    0.330914   0.453528  -0.034467  -0.034467
     3  H    0.330914  -0.034467   0.453528  -0.034467
     4  H    0.330914  -0.034467  -0.034467   0.453528
 Mulliken charges:
               1
     1  N   -0.853474
     2  H    0.284491
     3  H    0.284491
     4  H    0.284491
 Sum of Mulliken charges =  -0.00000
 Mulliken charges with hydrogens summed into heavy atoms:
               1
     1  N   -0.000000
 Electronic spatial extent (au):  <R**2>=             25.7514
 Charge=             -0.0000 electrons
 Dipole moment (field-independent basis, Debye):
    X=              0.0000    Y=             -0.0000    Z=             -2.0049  Tot=              2.0049
 Quadrupole moment (field-independent basis, Debye-Ang):
   XX=             -5.8848   YY=             -5.8848   ZZ=             -8.6314
   XY=             -0.0000   XZ=              0.0000   YZ=              0.0000
 Traceless Quadrupole moment (field-independent basis, Debye-Ang):
   XX=              0.9155   YY=              0.9155   ZZ=             -1.8310
   XY=             -0.0000   XZ=              0.0000   YZ=              0.0000
 Octapole moment (field-independent basis, Debye-Ang**2):
  XXX=             -0.0000  YYY=              0.8422  ZZZ=             -1.4893  XYY=              0.0000
  XXY=             -0.8422  XXZ=             -0.8156  XZZ=              0.0000  YZZ=              0.0000
  YYZ=             -0.8156  XYZ=              0.0000
 Hexadecapole moment (field-independent basis, Debye-Ang**3):
 XXXX=             -8.6781 YYYY=             -8.6781 ZZZZ=             -8.0431 XXXY=              0.0000
 XXXZ=              0.0000 YYYX=              0.0000 YYYZ=             -0.2785 ZZZX=             -0.0000
 ZZZY=             -0.0000 XXYY=             -2.8927 XXZZ=             -2.8806 YYZZ=             -2.8806
 XXYZ=              0.2785 YYXZ=             -0.0000 ZZXY=              0.0000
 N-N= 1.195223853202D+01 E-N=-1.550012693072D+02  KE= 5.573724442437D+01
 Symmetry A'   KE= 5.322351227268D+01
 Symmetry A"   KE= 2.513732151694D+00
 Orbital energies and kinetic energies (alpha):
                                 1                 2
   1         (A1)--O         -15.439896         21.916349
   2         (A1)--O          -1.125530          1.801606
   3         (E)--O           -0.614671          1.256866
   4         (E)--O           -0.614671          1.256866
   5         (A1)--O          -0.397141          1.636935
   6         (A1)--V           0.270480          1.136751
   7         (E)--V            0.372240          1.044394
   8         (E)--V            0.372240          1.044394
   9         (E)--V            1.167836          2.090454
  10         (E)--V            1.167836          2.090454
  11         (A1)--V           1.318290          2.860556
  12         (A1)--V           1.415621          3.775381
  13         (E)--V            1.590026          4.185928
  14         (E)--V            1.590026          4.185928
  15         (A1)--V           2.587743          4.659567
 Total kinetic energy from orbitals= 5.573724442437D+01
 1\1\GINC-IISERK51\SP\RHF\3-21G\H3N1\GAUSSIAN\16-Jun-2025\0\\# hf/3-21g
  pop=full geom=connectivity\\Title Card Required\\0,1\N,0,0.,0.,-1.254
 501\H,0,-0.476254,0.824896,-1.593899\H,0,-0.476254,-0.824896,-1.593899
 \H,0,0.952508,0.,-1.593899\\Version=EM64L-G16RevB.01\State=1-A1\HF=-55
 .8716825\RMSD=3.367e-10\Dipole=0.,0.,-0.7887796\Quadrupole=0.6806701,0
 .6806701,-1.3613401,0.,0.,0.\PG=C03V [C3(N1),3SGV(H1)]\\@


 THE MOLECULE ALSO HAS A BODY.  WHEN THIS BODY IS HIT, THE MOLECULE
 FEELS HURT ALL OVER -- A. KITAIGORODSKI
 Job cpu time:       0 days  0 hours  0 minutes  0.4 seconds.
 Elapsed time:       0 days  0 hours  0 minutes  0.4 seconds.
 File lengths (MBytes):  RWF=      6 Int=      0 D2E=      0 Chk=      1 Scr=      1
 Normal termination of Gaussian 16 at Mon Jun 16 22:03:59 2025.
