 Entering Gaussian System, Link 0=g16
 Input=/home/gaussian/Documents/jeeva/Aromaticity/cyclobutadiene/meth_cyclobutadiene_isomer.com
 Output=/home/gaussian/Documents/jeeva/Aromaticity/cyclobutadiene/meth_cyclobutadiene_isomer.log
 Initial command:
 /usr/local/g16/l1.exe "/home/gaussian/tmp/Gau-95411.inp" -scrdir="/home/gaussian/tmp/"
 Entering Link 1 = /usr/local/g16/l1.exe PID=     95414.
  
 Copyright (c) 1988-2017, Gaussian, Inc.  All Rights Reserved.
  
 This is part of the Gaussian(R) 16 program.  It is based on
 the Gaussian(R) 09 system (copyright 2009, Gaussian, Inc.),
 the Gaussian(R) 03 system (copyright 2003, Gaussian, Inc.),
 the Gaussian(R) 98 system (copyright 1998, Gaussian, Inc.),
 the Gaussian(R) 94 system (copyright 1995, Gaussian, Inc.),
 the Gaussian 92(TM) system (copyright 1992, Gaussian, Inc.),
 the Gaussian 90(TM) system (copyright 1990, Gaussian, Inc.),
 the Gaussian 88(TM) system (copyright 1988, Gaussian, Inc.),
 the Gaussian 86(TM) system (copyright 1986, Carnegie Mellon
 University), and the Gaussian 82(TM) system (copyright 1983,
 Carnegie Mellon University). Gaussian is a federally registered
 trademark of Gaussian, Inc.
  
 This software contains proprietary and confidential information,
 including trade secrets, belonging to Gaussian, Inc.
  
 This software is provided under written license and may be
 used, copied, transmitted, or stored only in accord with that
 written license.
  
 The following legend is applicable only to US Government
 contracts under FAR:
  
                    RESTRICTED RIGHTS LEGEND
  
 Use, reproduction and disclosure by the US Government is
 subject to restrictions as set forth in subparagraphs (a)
 and (c) of the Commercial Computer Software - Restricted
 Rights clause in FAR 52.227-19.
  
 Gaussian, Inc.
 340 Quinnipiac St., Bldg. 40, Wallingford CT 06492
  
  
 ---------------------------------------------------------------
 Warning -- This program may not be used in any manner that
 competes with the business of Gaussian, Inc. or will provide
 assistance to any competitor of Gaussian, Inc.  The licensee
 of this program is prohibited from giving any competitor of
 Gaussian, Inc. access to this program.  By using this program,
 the user acknowledges that Gaussian, Inc. is engaged in the
 business of creating and licensing software in the field of
 computational chemistry and represents and warrants to the
 licensee that it is not a competitor of Gaussian, Inc. and that
 it will not use this program in any manner prohibited above.
 ---------------------------------------------------------------
  

 Cite this work as:
 Gaussian 16, Revision B.01,
 M. J. Frisch, G. W. Trucks, H. B. Schlegel, G. E. Scuseria, 
 M. A. Robb, J. R. Cheeseman, G. Scalmani, V. Barone, 
 G. A. Petersson, H. Nakatsuji, X. Li, M. Caricato, A. V. Marenich, 
 J. Bloino, B. G. Janesko, R. Gomperts, B. Mennucci, H. P. Hratchian, 
 J. V. Ortiz, A. F. Izmaylov, J. L. Sonnenberg, D. Williams-Young, 
 F. Ding, F. Lipparini, F. Egidi, J. Goings, B. Peng, A. Petrone, 
 T. Henderson, D. Ranasinghe, V. G. Zakrzewski, J. Gao, N. Rega, 
 G. Zheng, W. Liang, M. Hada, M. Ehara, K. Toyota, R. Fukuda, 
 J. Hasegawa, M. Ishida, T. Nakajima, Y. Honda, O. Kitao, H. Nakai, 
 T. Vreven, K. Throssell, J. A. Montgomery, Jr., J. E. Peralta, 
 F. Ogliaro, M. J. Bearpark, J. J. Heyd, E. N. Brothers, K. N. Kudin, 
 V. N. Staroverov, T. A. Keith, R. Kobayashi, J. Normand, 
 K. Raghavachari, A. P. Rendell, J. C. Burant, S. S. Iyengar, 
 J. Tomasi, M. Cossi, J. M. Millam, M. Klene, C. Adamo, R. Cammi, 
 J. W. Ochterski, R. L. Martin, K. Morokuma, O. Farkas, 
 J. B. Foresman, and D. J. Fox, Gaussian, Inc., Wallingford CT, 2016.
 
 ******************************************
 Gaussian 16:  EM64L-G16RevB.01 20-Dec-2017
                 9-Jun-2025 
 ******************************************
 %chk=meth_cyclobutadiene_isomer.chk
 -------------------------------------
 # opt freq hf/3-21g geom=connectivity
 -------------------------------------
 1/18=20,19=15,38=1,57=2/1,3;
 2/9=110,12=2,17=6,18=5,40=1/2;
 3/5=5,11=9,25=1,30=1,71=1/1,2,3;
 4//1;
 5/5=2,38=5/2;
 6/7=2,8=2,9=2,10=2,28=1/1;
 7//1,2,3,16;
 1/18=20,19=15/3(2);
 2/9=110/2;
 99//99;
 2/9=110/2;
 3/5=5,11=9,25=1,30=1,71=1/1,2,3;
 4/5=5,16=3,69=1/1;
 5/5=2,38=5/2;
 7//1,2,3,16;
 1/18=20,19=15/3(-5);
 2/9=110/2;
 6/7=2,8=2,9=2,10=2,19=2,28=1/1;
 99/9=1/99;
 ------------
 Optimisation
 ------------
 Symbolic Z-matrix:
 Charge =  0 Multiplicity = 1
 C                     0.1694    1.05464   0. 
 C                     1.71265   1.05464   0. 
 C                     1.71258   2.59783   0. 
 C                     0.16936   2.59783  -0.00027 
 H                    -0.2836    0.60153  -0.90642 
 H                     2.16555   0.60183  -0.90662 
 H                     2.12656   3.01167  -0.89569 
 C                    -0.45866   3.22561  -1.25848 
 H                    -0.27779   4.28022  -1.25911 
 H                    -0.0213    2.78821  -2.13157 
 H                     2.12625   3.01167   0.89584 
 

 GradGradGradGradGradGradGradGradGradGradGradGradGradGradGradGradGradGrad
 Berny optimization.
 Initialization pass.
                           ----------------------------
                           !    Initial Parameters    !
                           ! (Angstroms and Degrees)  !
 --------------------------                            --------------------------
 ! Name  Definition              Value          Derivative Info.                !
 --------------------------------------------------------------------------------
 ! R1    R(1,2)                  1.5432         estimate D2E/DX2                !
 ! R2    R(1,4)                  1.5432         estimate D2E/DX2                !
 ! R3    R(1,5)                  1.11           estimate D2E/DX2                !
 ! R4    R(2,3)                  1.5432         estimate D2E/DX2                !
 ! R5    R(2,6)                  1.11           estimate D2E/DX2                !
 ! R6    R(3,4)                  1.5432         estimate D2E/DX2                !
 ! R7    R(3,7)                  1.07           estimate D2E/DX2                !
 ! R8    R(3,11)                 1.07           estimate D2E/DX2                !
 ! R9    R(4,8)                  1.54           estimate D2E/DX2                !
 ! R10   R(8,9)                  1.07           estimate D2E/DX2                !
 ! R11   R(8,10)                 1.07           estimate D2E/DX2                !
 ! A1    A(2,1,4)               90.0016         estimate D2E/DX2                !
 ! A2    A(2,1,5)              114.0856         estimate D2E/DX2                !
 ! A3    A(4,1,5)              114.0826         estimate D2E/DX2                !
 ! A4    A(1,2,3)               89.9977         estimate D2E/DX2                !
 ! A5    A(1,2,6)              114.0807         estimate D2E/DX2                !
 ! A6    A(3,2,6)              114.0763         estimate D2E/DX2                !
 ! A7    A(2,3,4)               90.0022         estimate D2E/DX2                !
 ! A8    A(2,3,7)              112.7523         estimate D2E/DX2                !
 ! A9    A(2,3,11)             112.7523         estimate D2E/DX2                !
 ! A10   A(4,3,7)              112.7523         estimate D2E/DX2                !
 ! A11   A(4,3,11)             112.7523         estimate D2E/DX2                !
 ! A12   A(7,3,11)             113.6834         estimate D2E/DX2                !
 ! A13   A(1,4,3)               89.9985         estimate D2E/DX2                !
 ! A14   A(1,4,8)              114.067          estimate D2E/DX2                !
 ! A15   A(3,4,8)              114.0758         estimate D2E/DX2                !
 ! A16   A(4,8,9)              109.4712         estimate D2E/DX2                !
 ! A17   A(4,8,10)             109.4712         estimate D2E/DX2                !
 ! A18   A(9,8,10)             109.4712         estimate D2E/DX2                !
 ! D1    D(4,1,2,3)              0.01           estimate D2E/DX2                !
 ! D2    D(4,1,2,6)           -116.53           estimate D2E/DX2                !
 ! D3    D(5,1,2,3)            116.5601         estimate D2E/DX2                !
 ! D4    D(5,1,2,6)              0.0201         estimate D2E/DX2                !
 ! D5    D(2,1,4,3)             -0.01           estimate D2E/DX2                !
 ! D6    D(2,1,4,8)            116.5268         estimate D2E/DX2                !
 ! D7    D(5,1,4,3)           -116.5628         estimate D2E/DX2                !
 ! D8    D(5,1,4,8)             -0.026          estimate D2E/DX2                !
 ! D9    D(1,2,3,4)             -0.01           estimate D2E/DX2                !
 ! D10   D(1,2,3,7)           -114.8066         estimate D2E/DX2                !
 ! D11   D(1,2,3,11)           114.7865         estimate D2E/DX2                !
 ! D12   D(6,2,3,4)            116.5339         estimate D2E/DX2                !
 ! D13   D(6,2,3,7)              1.7374         estimate D2E/DX2                !
 ! D14   D(6,2,3,11)          -128.6695         estimate D2E/DX2                !
 ! D15   D(2,3,4,1)              0.01           estimate D2E/DX2                !
 ! D16   D(2,3,4,8)           -116.5189         estimate D2E/DX2                !
 ! D17   D(7,3,4,1)            114.8066         estimate D2E/DX2                !
 ! D18   D(7,3,4,8)             -1.7224         estimate D2E/DX2                !
 ! D19   D(11,3,4,1)          -114.7865         estimate D2E/DX2                !
 ! D20   D(11,3,4,8)           128.6846         estimate D2E/DX2                !
 ! D21   D(1,4,8,9)           -170.7561         estimate D2E/DX2                !
 ! D22   D(1,4,8,10)           -50.7561         estimate D2E/DX2                !
 ! D23   D(3,4,8,9)            -69.2466         estimate D2E/DX2                !
 ! D24   D(3,4,8,10)            50.7534         estimate D2E/DX2                !
 --------------------------------------------------------------------------------
 Trust Radius=3.00D-01 FncErr=1.00D-07 GrdErr=1.00D-07 EigMax=2.50D+02 EigMin=1.00D-04
 Number of steps in this run=     63 maximum allowed number of steps=    100.
 GradGradGradGradGradGradGradGradGradGradGradGradGradGradGradGradGradGrad

                          Input orientation:                          
 ---------------------------------------------------------------------
 Center     Atomic      Atomic             Coordinates (Angstroms)
 Number     Number       Type             X           Y           Z
 ---------------------------------------------------------------------
      1          6           0        0.169399    1.054645    0.000000
      2          6           0        1.712646    1.054645    0.000000
      3          6           0        1.712585    2.597835    0.000000
      4          6           0        0.169356    2.597832   -0.000270
      5          1           0       -0.283595    0.601532   -0.906420
      6          1           0        2.165554    0.601832   -0.906615
      7          1           0        2.126561    3.011671   -0.895692
      8          6           0       -0.458661    3.225613   -1.258477
      9          1           0       -0.277794    4.280215   -1.259109
     10          1           0       -0.021299    2.788207   -2.131570
     11          1           0        2.126247    3.011671    0.895837
 ---------------------------------------------------------------------
                    Distance matrix (angstroms):
                    1          2          3          4          5
     1  C    0.000000
     2  C    1.543247   0.000000
     3  C    2.182397   1.543190   0.000000
     4  C    1.543187   2.182469   1.543229   0.000000
     5  H    1.110005   2.238724   2.965056   2.238635   0.000000
     6  H    2.238666   1.110007   2.238562   2.964841   2.449149
     7  H    2.909072   2.191698   1.070000   2.191733   3.408480
     8  C    2.586760   3.318349   2.586925   1.540000   2.653374
     9  H    3.491367   3.993934   2.894368   2.148263   3.695556
    10  H    2.754124   3.248907   2.754304   2.148263   2.520187
    11  H    2.908905   2.191698   1.070000   2.191733   3.855417
                    6          7          8          9         10
     6  H    0.000000
     7  H    2.410179   0.000000
     8  C    3.727538   2.619304   0.000000
     9  H    4.429978   2.742662   1.070000   0.000000
    10  H    3.326121   2.488098   1.070000   1.747303   0.000000
    11  H    3.009602   1.791528   3.371734   3.468776   3.718479
                   11
    11  H    0.000000
 Stoichiometry    C5H6
 Framework group  C1[X(C5H6)]
 Deg. of freedom    27
 Full point group                 C1      NOp   1
 Largest Abelian subgroup         C1      NOp   1
 Largest concise Abelian subgroup C1      NOp   1
                         Standard orientation:                         
 ---------------------------------------------------------------------
 Center     Atomic      Atomic             Coordinates (Angstroms)
 Number     Number       Type             X           Y           Z
 ---------------------------------------------------------------------
      1          6           0       -0.526430   -1.119519   -0.308512
      2          6           0       -1.508013   -0.056567    0.228366
      3          6           0       -0.470151    1.048112   -0.061398
      4          6           0        0.511521   -0.014861   -0.598021
      5          1           0       -0.200073   -1.859721    0.451557
      6          1           0       -1.757580   -0.172612    1.303710
      7          1           0       -0.116251    1.526909    0.827651
      8          6           0        1.809225   -0.142130    0.221348
      9          1           0        2.403663    0.737331    0.086842
     10          1           0        1.567225   -0.254014    1.257600
     11          1           0       -0.793901    1.731894   -0.818054
 ---------------------------------------------------------------------
 Rotational constants (GHZ):          10.2325923           5.0978021           4.0171199
 Standard basis: 3-21G (6D, 7F)
 There are    57 symmetry adapted cartesian basis functions of A   symmetry.
 There are    57 symmetry adapted basis functions of A   symmetry.
    57 basis functions,    93 primitive gaussians,    57 cartesian basis functions
    18 alpha electrons       18 beta electrons
       nuclear repulsion energy       149.1359036718 Hartrees.
 NAtoms=   11 NActive=   11 NUniq=   11 SFac= 1.00D+00 NAtFMM=   60 NAOKFM=F Big=F
 Integral buffers will be    131072 words long.
 Raffenetti 1 integral format.
 Two-electron integral symmetry is turned on.
 One-electron integrals computed using PRISM.
 NBasis=    57 RedAO= T EigKep=  6.24D-03  NBF=    57
 NBsUse=    57 1.00D-06 EigRej= -1.00D+00 NBFU=    57
 ExpMin= 1.83D-01 ExpMax= 1.72D+02 ExpMxC= 1.72D+02 IAcc=3 IRadAn=         5 AccDes= 0.00D+00
 Harris functional with IExCor=  205 and IRadAn=       5 diagonalized for initial guess.
 HarFok:  IExCor=  205 AccDes= 0.00D+00 IRadAn=         5 IDoV= 1 UseB2=F ITyADJ=14
 ICtDFT=  3500011 ScaDFX=  1.000000  1.000000  1.000000  1.000000
 FoFCou: FMM=F IPFlag=           0 FMFlag=      100000 FMFlg1=           0
         NFxFlg=           0 DoJE=T BraDBF=F KetDBF=T FulRan=T
         wScrn=  0.000000 ICntrl=       500 IOpCl=  0 I1Cent=   200000004 NGrid=           0
         NMat0=    1 NMatS0=      1 NMatT0=    0 NMatD0=    1 NMtDS0=    0 NMtDT0=    0
 Petite list used in FoFCou.
 Keep R1 ints in memory in canonical form, NReq=2188504.
 Requested convergence on RMS density matrix=1.00D-08 within 128 cycles.
 Requested convergence on MAX density matrix=1.00D-06.
 Requested convergence on             energy=1.00D-06.
 No special actions if energy rises.
 SCF Done:  E(RHF) =  -191.392758324     A.U. after   17 cycles
            NFock= 17  Conv=0.92D-08     -V/T= 2.0044

 **********************************************************************

            Population analysis using the SCF Density.

 **********************************************************************

 Orbital symmetries:
       Occupied  (A) (A) (A) (A) (A) (A) (A) (A) (A) (A) (A) (A)
                 (A) (A) (A) (A) (A) (A)
       Virtual   (A) (A) (A) (A) (A) (A) (A) (A) (A) (A) (A) (A)
                 (A) (A) (A) (A) (A) (A) (A) (A) (A) (A) (A) (A)
                 (A) (A) (A) (A) (A) (A) (A) (A) (A) (A) (A) (A)
                 (A) (A) (A)
 The electronic state is 1-A.
 Alpha  occ. eigenvalues --  -11.24157 -11.23986 -11.23495 -11.22135 -11.16639
 Alpha  occ. eigenvalues --   -1.16993  -0.95763  -0.92230  -0.81513  -0.70140
 Alpha  occ. eigenvalues --   -0.65234  -0.60321  -0.56759  -0.52379  -0.49442
 Alpha  occ. eigenvalues --   -0.47454  -0.36160  -0.27007
 Alpha virt. eigenvalues --    0.02126   0.06988   0.24271   0.29438   0.31519
 Alpha virt. eigenvalues --    0.32639   0.34154   0.34900   0.37000   0.38495
 Alpha virt. eigenvalues --    0.46285   0.47659   0.61339   0.91003   0.93622
 Alpha virt. eigenvalues --    0.94886   0.95803   0.98065   1.00680   1.01264
 Alpha virt. eigenvalues --    1.03507   1.05859   1.08767   1.09034   1.16162
 Alpha virt. eigenvalues --    1.17992   1.19525   1.25210   1.28901   1.32540
 Alpha virt. eigenvalues --    1.33085   1.38591   1.42238   1.51008   1.76952
 Alpha virt. eigenvalues --    1.91221   2.14947   2.32154   2.86161
          Condensed to atoms (all electrons):
               1          2          3          4          5          6
     1  C    5.533962   0.384874  -0.252870   0.282480   0.345735  -0.037098
     2  C    0.384874   5.553663   0.244015  -0.199873  -0.041926   0.364813
     3  C   -0.252870   0.244015   5.706258   0.108373   0.018734  -0.052631
     4  C    0.282480  -0.199873   0.108373   5.779803  -0.056804   0.010677
     5  H    0.345735  -0.041926   0.018734  -0.056804   0.473128   0.000144
     6  H   -0.037098   0.364813  -0.052631   0.010677   0.000144   0.465814
     7  H    0.002441  -0.037685   0.383309  -0.037125  -0.000538   0.001544
     8  C   -0.075249  -0.003712  -0.083116   0.398488   0.006388  -0.000382
     9  H    0.003821  -0.000085  -0.000586  -0.061196  -0.000154   0.000022
    10  H   -0.006381  -0.000951   0.011310  -0.059732   0.002292   0.000412
    11  H    0.010893  -0.040279   0.350030  -0.044961  -0.000316   0.000911
               7          8          9         10         11
     1  C    0.002441  -0.075249   0.003821  -0.006381   0.010893
     2  C   -0.037685  -0.003712  -0.000085  -0.000951  -0.040279
     3  C    0.383309  -0.083116  -0.000586   0.011310   0.350030
     4  C   -0.037125   0.398488  -0.061196  -0.059732  -0.044961
     5  H   -0.000538   0.006388  -0.000154   0.002292  -0.000316
     6  H    0.001544  -0.000382   0.000022   0.000412   0.000911
     7  H    0.441077  -0.003993  -0.000259   0.000650  -0.016669
     8  C   -0.003993   5.455838   0.385129   0.369368   0.002651
     9  H   -0.000259   0.385129   0.530370  -0.044443   0.000232
    10  H    0.000650   0.369368  -0.044443   0.522585  -0.000179
    11  H   -0.016669   0.002651   0.000232  -0.000179   0.476425
 Mulliken charges:
               1
     1  C   -0.192608
     2  C   -0.222854
     3  C   -0.432825
     4  C   -0.120127
     5  H    0.253319
     6  H    0.245775
     7  H    0.267249
     8  C   -0.451411
     9  H    0.187151
    10  H    0.205070
    11  H    0.261262
 Sum of Mulliken charges =  -0.00000
 Mulliken charges with hydrogens summed into heavy atoms:
               1
     1  C    0.060711
     2  C    0.022921
     3  C    0.095686
     4  C   -0.120127
     8  C   -0.059190
 Electronic spatial extent (au):  <R**2>=            366.3213
 Charge=             -0.0000 electrons
 Dipole moment (field-independent basis, Debye):
    X=             -1.4112    Y=              1.2926    Z=              2.1871  Tot=              2.9061
 Quadrupole moment (field-independent basis, Debye-Ang):
   XX=            -37.6671   YY=            -31.3587   ZZ=            -31.1537
   XY=              1.8967   XZ=             -0.4892   YZ=             -1.2206
 Traceless Quadrupole moment (field-independent basis, Debye-Ang):
   XX=             -4.2739   YY=              2.0345   ZZ=              2.2394
   XY=              1.8967   XZ=             -0.4892   YZ=             -1.2206
 Octapole moment (field-independent basis, Debye-Ang**2):
  XXX=             -6.0032  YYY=              4.0392  ZZZ=              7.3825  XYY=             -1.2073
  XXY=              6.3824  XXZ=              4.3655  XZZ=             -1.6189  YZZ=              2.1961
  YYZ=              2.8034  XYZ=              1.0706
 Hexadecapole moment (field-independent basis, Debye-Ang**3):
 XXXX=           -336.2156 YYYY=           -148.7025 ZZZZ=            -69.1753 XXXY=             14.6826
 XXXZ=             -2.6217 YYYX=              0.7497 YYYZ=             -5.2219 ZZZX=             -0.9079
 ZZZY=             -2.5520 XXYY=            -80.4715 XXZZ=            -60.8286 YYZZ=            -35.5527
 XXYZ=             -1.9467 YYXZ=             -0.0549 ZZXY=              0.0071
 N-N= 1.491359036718D+02 E-N=-7.423813292903D+02  KE= 1.905601175100D+02
 Calling FoFJK, ICntrl=      2127 FMM=F ISym2X=0 I1Cent= 0 IOpClX= 0 NMat=1 NMatS=1 NMatT=0.
 ***** Axes restored to original set *****
 -------------------------------------------------------------------
 Center     Atomic                   Forces (Hartrees/Bohr)
 Number     Number              X              Y              Z
 -------------------------------------------------------------------
      1        6           0.114001837    0.042332654   -0.058093077
      2        6          -0.124719789    0.022064276   -0.059914379
      3        6           0.030691390    0.025088043    0.080991381
      4        6          -0.056642529   -0.040710014   -0.121823866
      5        1          -0.015409834   -0.018302229    0.041068514
      6        1           0.002864300   -0.012336141    0.033445180
      7        1           0.004510779    0.000811706   -0.002849509
      8        6           0.066280245   -0.015324168    0.106455107
      9        1           0.002452870    0.009279806   -0.001801708
     10        1          -0.037353933   -0.022977477   -0.017485931
     11        1           0.013324664    0.010073545    0.000008288
 -------------------------------------------------------------------
 Cartesian Forces:  Max     0.124719789 RMS     0.051570416

 GradGradGradGradGradGradGradGradGradGradGradGradGradGradGradGradGradGrad
 Berny optimization.
 FormGI is forming the generalized inverse of G from B-inverse, IUseBI=4.
 Internal  Forces:  Max     0.095844656 RMS     0.026616912
 Search for a local minimum.
 Step number   1 out of a maximum of   63
 All quantities printed in internal units (Hartrees-Bohrs-Radians)
 Mixed Optimization -- RFO/linear search
 Second derivative matrix not updated -- first step.
 ITU=  0
     Eigenvalues ---    0.00230   0.00237   0.02966   0.03248   0.04920
     Eigenvalues ---    0.05087   0.05197   0.06185   0.06732   0.07872
     Eigenvalues ---    0.08179   0.08519   0.11380   0.16000   0.16000
     Eigenvalues ---    0.21029   0.26421   0.26874   0.28234   0.28238
     Eigenvalues ---    0.28519   0.32599   0.32599   0.37230   0.37230
     Eigenvalues ---    0.37230   0.37230
 RFO step:  Lambda=-1.31793746D-01 EMin= 2.30000039D-03
 Linear search not attempted -- first point.
 Maximum step size (   0.300) exceeded in Quadratic search.
    -- Step size scaled by   0.603
 Iteration  1 RMS(Cart)=  0.07612140 RMS(Int)=  0.00664490
 Iteration  2 RMS(Cart)=  0.00589732 RMS(Int)=  0.00168197
 Iteration  3 RMS(Cart)=  0.00002874 RMS(Int)=  0.00168177
 Iteration  4 RMS(Cart)=  0.00000009 RMS(Int)=  0.00168177
 Variable       Old X    -DE/DX   Delta X   Delta X   Delta X     New X
                                 (Linear)    (Quad)   (Total)
    R1        2.91631  -0.09279   0.00000  -0.13768  -0.13726   2.77905
    R2        2.91620  -0.03205   0.00000  -0.05132  -0.05146   2.86474
    R3        2.09761  -0.01978   0.00000  -0.02605  -0.02605   2.07155
    R4        2.91621  -0.00171   0.00000   0.00217   0.00231   2.91852
    R5        2.09761  -0.02112   0.00000  -0.02782  -0.02782   2.06979
    R6        2.91628   0.01947   0.00000   0.03090   0.03050   2.94678
    R7        2.02201   0.00444   0.00000   0.00532   0.00532   2.02732
    R8        2.02201   0.00905   0.00000   0.01083   0.01083   2.03284
    R9        2.91018  -0.09584   0.00000  -0.13862  -0.13862   2.77156
   R10        2.02201   0.00956   0.00000   0.01144   0.01144   2.03345
   R11        2.02201   0.00839   0.00000   0.01004   0.01004   2.03205
    A1        1.57082   0.00872   0.00000   0.00516   0.00461   1.57544
    A2        1.99117   0.01885   0.00000   0.06276   0.05951   2.05068
    A3        1.99112   0.01890   0.00000   0.06740   0.06438   2.05550
    A4        1.57076   0.02978   0.00000   0.05264   0.05219   1.62295
    A5        1.99108  -0.00181   0.00000   0.01683   0.01120   2.00228
    A6        1.99101   0.02084   0.00000   0.07288   0.07148   2.06249
    A7        1.57083  -0.04018   0.00000  -0.07099  -0.06971   1.50112
    A8        1.96790   0.00465   0.00000   0.00092   0.00141   1.96931
    A9        1.96790   0.01670   0.00000   0.03183   0.03128   1.99918
   A10        1.96790   0.01022   0.00000   0.01433   0.01395   1.98185
   A11        1.96790   0.01602   0.00000   0.03366   0.03322   2.00112
   A12        1.98415  -0.01082   0.00000  -0.01651  -0.01684   1.96731
   A13        1.57077   0.00169   0.00000   0.01318   0.01165   1.58242
   A14        1.99084  -0.00052   0.00000   0.00918   0.00513   1.99598
   A15        1.99100   0.03855   0.00000   0.09949   0.09962   2.09062
   A16        1.91063   0.00510   0.00000   0.02214   0.01923   1.92986
   A17        1.91063   0.04003   0.00000   0.09433   0.09157   2.00220
   A18        1.91063   0.00562   0.00000   0.03481   0.03015   1.94079
    D1        0.00017   0.01037   0.00000   0.03518   0.03614   0.03631
    D2       -2.03383  -0.02740   0.00000  -0.07635  -0.07645  -2.11028
    D3        2.03436   0.04007   0.00000   0.12713   0.12864   2.16299
    D4        0.00035   0.00230   0.00000   0.01561   0.01605   0.01640
    D5       -0.00017  -0.01037   0.00000  -0.03517  -0.03574  -0.03592
    D6        2.03378   0.03345   0.00000   0.08465   0.08415   2.11793
    D7       -2.03440  -0.04002   0.00000  -0.12297  -0.12412  -2.15852
    D8       -0.00045   0.00380   0.00000  -0.00315  -0.00422  -0.00467
    D9       -0.00017  -0.01037   0.00000  -0.03517  -0.03521  -0.03539
   D10       -2.00375  -0.00396   0.00000  -0.01834  -0.01965  -2.02341
   D11        2.00340  -0.00804   0.00000  -0.02472  -0.02588   1.97753
   D12        2.03390   0.00714   0.00000   0.02620   0.02861   2.06251
   D13        0.03032   0.01354   0.00000   0.04304   0.04417   0.07449
   D14       -2.24571   0.00946   0.00000   0.03665   0.03794  -2.20776
   D15        0.00017   0.01036   0.00000   0.03517   0.03411   0.03428
   D16       -2.03364   0.00151   0.00000  -0.00386  -0.00575  -2.03939
   D17        2.00375  -0.00109   0.00000   0.00616   0.00622   2.00998
   D18       -0.03006  -0.00995   0.00000  -0.03287  -0.03364  -0.06370
   D19       -2.00340   0.00743   0.00000   0.02637   0.02666  -1.97674
   D20        2.24597  -0.00142   0.00000  -0.01265  -0.01320   2.23277
   D21       -2.98026  -0.00758   0.00000   0.00013  -0.00206  -2.98231
   D22       -0.88586   0.02694   0.00000   0.11409   0.11531  -0.77055
   D23       -1.20858   0.01528   0.00000   0.07568   0.07446  -1.13412
   D24        0.88581   0.04980   0.00000   0.18964   0.19182   1.07764
         Item               Value     Threshold  Converged?
 Maximum Force            0.095845     0.000450     NO 
 RMS     Force            0.026617     0.000300     NO 
 Maximum Displacement     0.355963     0.001800     NO 
 RMS     Displacement     0.076310     0.001200     NO 
 Predicted change in Energy=-6.880260D-02
 GradGradGradGradGradGradGradGradGradGradGradGradGradGradGradGradGradGrad

                          Input orientation:                          
 ---------------------------------------------------------------------
 Center     Atomic      Atomic             Coordinates (Angstroms)
 Number     Number       Type             X           Y           Z
 ---------------------------------------------------------------------
      1          6           0        0.199542    1.089969   -0.070228
      2          6           0        1.669439    1.078815   -0.025846
      3          6           0        1.759995    2.619556    0.030055
      4          6           0        0.204086    2.605917   -0.072897
      5          1           0       -0.285315    0.579165   -0.910281
      6          1           0        2.149137    0.562705   -0.864401
      7          1           0        2.242904    3.039707   -0.830876
      8          6           0       -0.454437    3.210817   -1.235437
      9          1           0       -0.279810    4.272344   -1.259050
     10          1           0       -0.209667    2.755417   -2.178303
     11          1           0        2.145122    3.011286    0.954946
 ---------------------------------------------------------------------
                    Distance matrix (angstroms):
                    1          2          3          4          5
     1  C    0.000000
     2  C    1.470610   0.000000
     3  C    2.187397   1.544412   0.000000
     4  C    1.515957   2.116959   1.559371   0.000000
     5  H    1.096219   2.202939   3.038210   2.246876   0.000000
     6  H    2.170170   1.095287   2.276427   2.929917   2.434939
     7  H    2.924961   2.195913   1.072814   2.217991   3.528805
     8  C    2.506671   3.243362   2.618161   1.466648   2.657052
     9  H    3.430829   3.939415   2.924774   2.101926   3.709615
    10  H    2.717563   3.312870   2.962240   2.150878   2.519856
    11  H    2.920226   2.218709   1.075732   2.233474   3.911689
                    6          7          8          9         10
     6  H    0.000000
     7  H    2.479004   0.000000
     8  C    3.732126   2.732874   0.000000
     9  H    4.451623   2.840213   1.076053   0.000000
    10  H    3.478258   2.812736   1.075313   1.775109   0.000000
    11  H    3.050506   1.788722   3.405187   3.517434   3.927817
                   11
    11  H    0.000000
 Stoichiometry    C5H6
 Framework group  C1[X(C5H6)]
 Deg. of freedom    27
 Full point group                 C1      NOp   1
 Largest Abelian subgroup         C1      NOp   1
 Largest concise Abelian subgroup C1      NOp   1
                         Standard orientation:                         
 ---------------------------------------------------------------------
 Center     Atomic      Atomic             Coordinates (Angstroms)
 Number     Number       Type             X           Y           Z
 ---------------------------------------------------------------------
      1          6           0       -0.459627   -1.095081   -0.322817
      2          6           0       -1.456731   -0.153145    0.207496
      3          6           0       -0.544866    1.070765   -0.028622
      4          6           0        0.515594    0.045927   -0.535347
      5          1           0       -0.146607   -1.920087    0.327630
      6          1           0       -1.786150   -0.362817    1.230812
      7          1           0       -0.264319    1.562838    0.882469
      8          6           0        1.786137   -0.102604    0.182090
      9          1           0        2.363862    0.803046    0.119456
     10          1           0        1.691257   -0.433631    1.200774
     11          1           0       -0.901087    1.755480   -0.777936
 ---------------------------------------------------------------------
 Rotational constants (GHZ):          10.3600359           5.2879264           4.0578620
 Standard basis: 3-21G (6D, 7F)
 There are    57 symmetry adapted cartesian basis functions of A   symmetry.
 There are    57 symmetry adapted basis functions of A   symmetry.
    57 basis functions,    93 primitive gaussians,    57 cartesian basis functions
    18 alpha electrons       18 beta electrons
       nuclear repulsion energy       150.7816489001 Hartrees.
 NAtoms=   11 NActive=   11 NUniq=   11 SFac= 1.00D+00 NAtFMM=   60 NAOKFM=F Big=F
 Integral buffers will be    131072 words long.
 Raffenetti 1 integral format.
 Two-electron integral symmetry is turned on.
 One-electron integrals computed using PRISM.
 NBasis=    57 RedAO= T EigKep=  6.21D-03  NBF=    57
 NBsUse=    57 1.00D-06 EigRej= -1.00D+00 NBFU=    57
 Initial guess from the checkpoint file:  "meth_cyclobutadiene_isomer.chk"
 B after Tr=    -0.000000   -0.000000   -0.000000
         Rot=    0.999466   -0.025343   -0.000192   -0.020643 Ang=  -3.75 deg.
 ExpMin= 1.83D-01 ExpMax= 1.72D+02 ExpMxC= 1.72D+02 IAcc=3 IRadAn=         5 AccDes= 0.00D+00
 Harris functional with IExCor=  205 and IRadAn=       5 diagonalized for initial guess.
 HarFok:  IExCor=  205 AccDes= 0.00D+00 IRadAn=         5 IDoV= 1 UseB2=F ITyADJ=14
 ICtDFT=  3500011 ScaDFX=  1.000000  1.000000  1.000000  1.000000
 FoFCou: FMM=F IPFlag=           0 FMFlag=      100000 FMFlg1=           0
         NFxFlg=           0 DoJE=T BraDBF=F KetDBF=T FulRan=T
         wScrn=  0.000000 ICntrl=       500 IOpCl=  0 I1Cent=   200000004 NGrid=           0
         NMat0=    1 NMatS0=      1 NMatT0=    0 NMatD0=    1 NMtDS0=    0 NMtDT0=    0
 Petite list used in FoFCou.
 Keep R1 ints in memory in canonical form, NReq=2188575.
 Requested convergence on RMS density matrix=1.00D-08 within 128 cycles.
 Requested convergence on MAX density matrix=1.00D-06.
 Requested convergence on             energy=1.00D-06.
 No special actions if energy rises.
 SCF Done:  E(RHF) =  -191.464952830     A.U. after   16 cycles
            NFock= 16  Conv=0.20D-08     -V/T= 2.0036
 Calling FoFJK, ICntrl=      2127 FMM=F ISym2X=0 I1Cent= 0 IOpClX= 0 NMat=1 NMatS=1 NMatT=0.
 ***** Axes restored to original set *****
 -------------------------------------------------------------------
 Center     Atomic                   Forces (Hartrees/Bohr)
 Number     Number              X              Y              Z
 -------------------------------------------------------------------
      1        6           0.105624879    0.028368322   -0.041303012
      2        6          -0.098311904    0.013347912   -0.053512329
      3        6           0.014813148    0.013637248    0.068444888
      4        6          -0.060200868   -0.025352487   -0.106995522
      5        1          -0.014625709   -0.014456708    0.034860985
      6        1           0.009587944   -0.009577811    0.028149012
      7        1           0.000171185    0.001601697   -0.002462349
      8        6           0.074744294    0.000829698    0.085083353
      9        1           0.001801363    0.004423364   -0.006582020
     10        1          -0.041434868   -0.017303813   -0.004630512
     11        1           0.007830537    0.004482577   -0.001052494
 -------------------------------------------------------------------
 Cartesian Forces:  Max     0.106995522 RMS     0.044318116

 GradGradGradGradGradGradGradGradGradGradGradGradGradGradGradGradGradGrad
 Berny optimization.
 Using GEDIIS/GDIIS optimizer.
 FormGI is forming the generalized inverse of G from B-inverse, IUseBI=4.
 Internal  Forces:  Max     0.079288661 RMS     0.021209401
 Search for a local minimum.
 Step number   2 out of a maximum of   63
 All quantities printed in internal units (Hartrees-Bohrs-Radians)
 Mixed Optimization -- RFO/linear search
 Update second derivatives using D2CorX and points    1    2
 DE= -7.22D-02 DEPred=-6.88D-02 R= 1.05D+00
 TightC=F SS=  1.41D+00  RLast= 4.47D-01 DXNew= 5.0454D-01 1.3398D+00
 Trust test= 1.05D+00 RLast= 4.47D-01 DXMaxT set to 5.05D-01
 ITU=  1  0
 Use linear search instead of GDIIS.
 Linear search step of   0.591 exceeds DXMaxT=   0.505 but not scaled.
 Quartic linear search produced a step of  2.00000.
 Iteration  1 RMS(Cart)=  0.12492276 RMS(Int)=  0.03506938
 Iteration  2 RMS(Cart)=  0.03782872 RMS(Int)=  0.01032604
 Iteration  3 RMS(Cart)=  0.00195159 RMS(Int)=  0.01017092
 Iteration  4 RMS(Cart)=  0.00003156 RMS(Int)=  0.01017089
 Iteration  5 RMS(Cart)=  0.00000091 RMS(Int)=  0.01017089
 Variable       Old X    -DE/DX   Delta X   Delta X   Delta X     New X
                                 (Linear)    (Quad)   (Total)
    R1        2.77905  -0.07263  -0.27453   0.00000  -0.27058   2.50846
    R2        2.86474  -0.01404  -0.10291   0.00000  -0.10338   2.76137
    R3        2.07155  -0.01351  -0.05210   0.00000  -0.05210   2.01945
    R4        2.91852  -0.00179   0.00462   0.00000   0.00551   2.92402
    R5        2.06979  -0.01284  -0.05563   0.00000  -0.05563   2.01416
    R6        2.94678   0.00952   0.06101   0.00000   0.05727   3.00406
    R7        2.02732   0.00268   0.01063   0.00000   0.01063   2.03796
    R8        2.03284   0.00353   0.02166   0.00000   0.02166   2.05450
    R9        2.77156  -0.07929  -0.27723   0.00000  -0.27723   2.49433
   R10        2.03345   0.00480   0.02288   0.00000   0.02288   2.05632
   R11        2.03205   0.00196   0.02008   0.00000   0.02008   2.05213
    A1        1.57544   0.01255   0.00923   0.00000   0.00611   1.58154
    A2        2.05068   0.01221   0.11902   0.00000   0.09878   2.14946
    A3        2.05550   0.01112   0.12876   0.00000   0.10873   2.16423
    A4        1.62295   0.01554   0.10439   0.00000   0.10097   1.72393
    A5        2.00228   0.00240   0.02240   0.00000  -0.01193   1.99035
    A6        2.06249   0.01679   0.14297   0.00000   0.13427   2.19676
    A7        1.50112  -0.01918  -0.13943   0.00000  -0.13135   1.36977
    A8        1.96931   0.00386   0.00283   0.00000   0.00646   1.97577
    A9        1.99918   0.00729   0.06256   0.00000   0.05839   2.05757
   A10        1.98185   0.00413   0.02791   0.00000   0.02609   2.00794
   A11        2.00112   0.00772   0.06645   0.00000   0.06348   2.06461
   A12        1.96731  -0.00541  -0.03369   0.00000  -0.03550   1.93181
   A13        1.58242  -0.00950   0.02330   0.00000   0.01432   1.59674
   A14        1.99598   0.00666   0.01026   0.00000  -0.01454   1.98144
   A15        2.09062   0.03333   0.19924   0.00000   0.20010   2.29072
   A16        1.92986   0.00995   0.03845   0.00000   0.01683   1.94669
   A17        2.00220   0.03210   0.18313   0.00000   0.16289   2.16509
   A18        1.94079   0.00011   0.06031   0.00000   0.03404   1.97483
    D1        0.03631   0.00889   0.07228   0.00000   0.07719   0.11350
    D2       -2.11028  -0.02048  -0.15289   0.00000  -0.14787  -2.25815
    D3        2.16299   0.03369   0.25727   0.00000   0.26229   2.42528
    D4        0.01640   0.00431   0.03210   0.00000   0.03723   0.05363
    D5       -0.03592  -0.00862  -0.07149   0.00000  -0.07329  -0.10921
    D6        2.11793   0.02628   0.16831   0.00000   0.16293   2.28086
    D7       -2.15852  -0.03445  -0.24824   0.00000  -0.25163  -2.41015
    D8       -0.00467   0.00044  -0.00844   0.00000  -0.01541  -0.02008
    D9       -0.03539  -0.00842  -0.07042   0.00000  -0.07106  -0.10644
   D10       -2.02341  -0.00511  -0.03931   0.00000  -0.04658  -2.06999
   D11        1.97753  -0.00791  -0.05175   0.00000  -0.05819   1.91934
   D12        2.06251   0.01079   0.05722   0.00000   0.07083   2.13334
   D13        0.07449   0.01410   0.08834   0.00000   0.09530   0.16979
   D14       -2.20776   0.01130   0.07589   0.00000   0.08369  -2.12407
   D15        0.03428   0.00740   0.06822   0.00000   0.06128   0.09556
   D16       -2.03939  -0.00525  -0.01150   0.00000  -0.02287  -2.06226
   D17        2.00998   0.00357   0.01245   0.00000   0.01247   2.02244
   D18       -0.06370  -0.00908  -0.06727   0.00000  -0.07168  -0.13538
   D19       -1.97674   0.00733   0.05332   0.00000   0.05428  -1.92246
   D20        2.23277  -0.00531  -0.02640   0.00000  -0.02987   2.20291
   D21       -2.98231  -0.00248  -0.00411   0.00000  -0.01225  -2.99456
   D22       -0.77055   0.03223   0.23062   0.00000   0.23635  -0.53420
   D23       -1.13412   0.01097   0.14892   0.00000   0.14319  -0.99093
   D24        1.07764   0.04568   0.38365   0.00000   0.39178   1.46942
         Item               Value     Threshold  Converged?
 Maximum Force            0.079289     0.000450     NO 
 RMS     Force            0.021209     0.000300     NO 
 Maximum Displacement     0.657342     0.001800     NO 
 RMS     Displacement     0.144523     0.001200     NO 
 Predicted change in Energy=-9.725012D-02
 GradGradGradGradGradGradGradGradGradGradGradGradGradGradGradGradGradGrad

                          Input orientation:                          
 ---------------------------------------------------------------------
 Center     Atomic      Atomic             Coordinates (Angstroms)
 Number     Number       Type             X           Y           Z
 ---------------------------------------------------------------------
      1          6           0        0.265850    1.167299   -0.212567
      2          6           0        1.587861    1.141407   -0.095658
      3          6           0        1.838377    2.657348    0.087045
      4          6           0        0.279723    2.628440   -0.224148
      5          1           0       -0.270379    0.569160   -0.917333
      6          1           0        2.073940    0.508892   -0.802540
      7          1           0        2.451488    3.083513   -0.691102
      8          6           0       -0.420419    3.154217   -1.211879
      9          1           0       -0.270192    4.229826   -1.279630
     10          1           0       -0.557517    2.680529   -2.179395
     11          1           0        2.162267    3.005065    1.064891
 ---------------------------------------------------------------------
                    Distance matrix (angstroms):
                    1          2          3          4          5
     1  C    0.000000
     2  C    1.327423   0.000000
     3  C    2.186974   1.547326   0.000000
     4  C    1.461252   1.984691   1.589679   0.000000
     5  H    1.068647   2.110846   3.133075   2.241372   0.000000
     6  H    2.012649   1.065847   2.337245   2.836588   2.347901
     7  H    2.945825   2.207302   1.078441   2.267532   3.712373
     8  C    2.327538   3.054594   2.652592   1.319944   2.606106
     9  H    3.287101   3.793742   2.964211   1.995215   3.678550
    10  H    2.614615   3.363555   3.298120   2.127598   2.476515
    11  H    2.933544   2.269370   1.087196   2.312454   3.972482
                    6          7          8          9         10
     6  H    0.000000
     7  H    2.604541   0.000000
     8  C    3.658843   2.919599   0.000000
     9  H    4.423564   3.011302   1.088160   0.000000
    10  H    3.679172   3.381054   1.085939   1.814512   0.000000
    11  H    3.118651   1.781380   3.446186   3.593560   4.245933
                   11
    11  H    0.000000
 Stoichiometry    C5H6
 Framework group  C1[X(C5H6)]
 Deg. of freedom    27
 Full point group                 C1      NOp   1
 Largest Abelian subgroup         C1      NOp   1
 Largest concise Abelian subgroup C1      NOp   1
                         Standard orientation:                         
 ---------------------------------------------------------------------
 Center     Atomic      Atomic             Coordinates (Angstroms)
 Number     Number       Type             X           Y           Z
 ---------------------------------------------------------------------
      1          6           0       -0.302875   -1.054359   -0.312570
      2          6           0       -1.318715   -0.348664    0.169212
      3          6           0       -0.721341    1.068941    0.002605
      4          6           0        0.512994    0.154313   -0.405991
      5          1           0        0.032759   -1.969548    0.125364
      6          1           0       -1.739302   -0.747925    1.063487
      7          1           0       -0.609794    1.595550    0.937096
      8          6           0        1.712948    0.022622    0.127882
      9          1           0        2.236438    0.975476    0.173937
     10          1           0        1.936681   -0.628422    0.967733
     11          1           0       -1.154849    1.717747   -0.754441
 ---------------------------------------------------------------------
 Rotational constants (GHZ):          10.6793662           5.7880194           4.1983153
 Standard basis: 3-21G (6D, 7F)
 There are    57 symmetry adapted cartesian basis functions of A   symmetry.
 There are    57 symmetry adapted basis functions of A   symmetry.
    57 basis functions,    93 primitive gaussians,    57 cartesian basis functions
    18 alpha electrons       18 beta electrons
       nuclear repulsion energy       155.3074168896 Hartrees.
 NAtoms=   11 NActive=   11 NUniq=   11 SFac= 1.00D+00 NAtFMM=   60 NAOKFM=F Big=F
 Integral buffers will be    131072 words long.
 Raffenetti 1 integral format.
 Two-electron integral symmetry is turned on.
 One-electron integrals computed using PRISM.
 NBasis=    57 RedAO= T EigKep=  5.72D-03  NBF=    57
 NBsUse=    57 1.00D-06 EigRej= -1.00D+00 NBFU=    57
 Initial guess from the checkpoint file:  "meth_cyclobutadiene_isomer.chk"
 B after Tr=    -0.000000   -0.000000    0.000000
         Rot=    0.997939   -0.034296   -0.000571   -0.054241 Ang=  -7.36 deg.
 ExpMin= 1.83D-01 ExpMax= 1.72D+02 ExpMxC= 1.72D+02 IAcc=3 IRadAn=         5 AccDes= 0.00D+00
 Harris functional with IExCor=  205 and IRadAn=       5 diagonalized for initial guess.
 HarFok:  IExCor=  205 AccDes= 0.00D+00 IRadAn=         5 IDoV= 1 UseB2=F ITyADJ=14
 ICtDFT=  3500011 ScaDFX=  1.000000  1.000000  1.000000  1.000000
 FoFCou: FMM=F IPFlag=           0 FMFlag=      100000 FMFlg1=           0
         NFxFlg=           0 DoJE=T BraDBF=F KetDBF=T FulRan=T
         wScrn=  0.000000 ICntrl=       500 IOpCl=  0 I1Cent=   200000004 NGrid=           0
         NMat0=    1 NMatS0=      1 NMatT0=    0 NMatD0=    1 NMtDS0=    0 NMtDT0=    0
 Petite list used in FoFCou.
 Keep R1 ints in memory in canonical form, NReq=2188720.
 Requested convergence on RMS density matrix=1.00D-08 within 128 cycles.
 Requested convergence on MAX density matrix=1.00D-06.
 Requested convergence on             energy=1.00D-06.
 No special actions if energy rises.
 SCF Done:  E(RHF) =  -191.543684448     A.U. after   15 cycles
            NFock= 15  Conv=0.57D-08     -V/T= 2.0002
 Calling FoFJK, ICntrl=      2127 FMM=F ISym2X=0 I1Cent= 0 IOpClX= 0 NMat=1 NMatS=1 NMatT=0.
 ***** Axes restored to original set *****
 -------------------------------------------------------------------
 Center     Atomic                   Forces (Hartrees/Bohr)
 Number     Number              X              Y              Z
 -------------------------------------------------------------------
      1        6           0.028033970    0.005364834   -0.007756966
      2        6           0.015789295   -0.014707336   -0.030361689
      3        6          -0.008875805   -0.002537026    0.038515108
      4        6          -0.038655360   -0.027776242   -0.022317835
      5        1          -0.016602864   -0.011318903    0.019266821
      6        1           0.030597796   -0.012238871    0.017528220
      7        1          -0.006128810    0.002468104   -0.002687851
      8        6           0.035465718    0.075242933   -0.011217261
      9        1          -0.002983371   -0.002142593   -0.015159070
     10        1          -0.033561479   -0.007799649    0.019231211
     11        1          -0.003079089   -0.004555250   -0.005040689
 -------------------------------------------------------------------
 Cartesian Forces:  Max     0.075242933 RMS     0.023169338

 GradGradGradGradGradGradGradGradGradGradGradGradGradGradGradGradGradGrad
 Berny optimization.
 Using GEDIIS/GDIIS optimizer.
 FormGI is forming the generalized inverse of G from B-inverse, IUseBI=4.
 Internal  Forces:  Max     0.035106972 RMS     0.016249637
 Search for a local minimum.
 Step number   3 out of a maximum of   63
 All quantities printed in internal units (Hartrees-Bohrs-Radians)
 Mixed Optimization -- RFO/linear search
 Update second derivatives using D2CorX and points    2    3
 ITU=  0  1  0
 Use linear search instead of GDIIS.
     Eigenvalues ---    0.00238   0.00248   0.01566   0.01941   0.02141
     Eigenvalues ---    0.02673   0.04717   0.05292   0.06880   0.07830
     Eigenvalues ---    0.08518   0.10567   0.13234   0.15769   0.16136
     Eigenvalues ---    0.21880   0.25692   0.27056   0.28171   0.28275
     Eigenvalues ---    0.32432   0.32559   0.36978   0.37168   0.37230
     Eigenvalues ---    0.37230   0.40117
 RFO step:  Lambda=-7.83727960D-02 EMin= 2.38145284D-03
 Quartic linear search produced a step of  0.11151.
 Iteration  1 RMS(Cart)=  0.12943407 RMS(Int)=  0.04109649
 Iteration  2 RMS(Cart)=  0.03979997 RMS(Int)=  0.00712505
 Iteration  3 RMS(Cart)=  0.00324525 RMS(Int)=  0.00621070
 Iteration  4 RMS(Cart)=  0.00001158 RMS(Int)=  0.00621069
 Iteration  5 RMS(Cart)=  0.00000018 RMS(Int)=  0.00621069
 Variable       Old X    -DE/DX   Delta X   Delta X   Delta X     New X
                                 (Linear)    (Quad)   (Total)
    R1        2.50846   0.02701  -0.03017   0.06861   0.03864   2.54710
    R2        2.76137   0.03392  -0.01153   0.08739   0.07810   2.83946
    R3        2.01945   0.00196  -0.00581   0.00670   0.00089   2.02034
    R4        2.92402  -0.00360   0.00061  -0.00773  -0.00939   2.91463
    R5        2.01416   0.00959  -0.00620   0.02368   0.01748   2.03164
    R6        3.00406   0.00578   0.00639   0.00976   0.01607   3.02013
    R7        2.03796  -0.00057   0.00119  -0.00180  -0.00062   2.03734
    R8        2.05450  -0.00691   0.00242  -0.01541  -0.01299   2.04151
    R9        2.49433   0.03193  -0.03091   0.07845   0.04754   2.54187
   R10        2.05632  -0.00159   0.00255  -0.00505  -0.00250   2.05383
   R11        2.05213  -0.00949   0.00224  -0.02073  -0.01849   2.03363
    A1        1.58154   0.01881   0.00068   0.05630   0.05619   1.63774
    A2        2.14946   0.00112   0.01101   0.05157   0.05070   2.20016
    A3        2.16423  -0.00160   0.01212   0.04255   0.04348   2.20771
    A4        1.72393  -0.02529   0.01126  -0.07672  -0.06708   1.65685
    A5        1.99035   0.02503  -0.00133   0.14105   0.13209   2.12244
    A6        2.19676   0.01116   0.01497   0.05780   0.06660   2.26336
    A7        1.36977   0.03344  -0.01465   0.09319   0.08155   1.45132
    A8        1.97577  -0.00207   0.00072   0.01374   0.01412   1.98990
    A9        2.05757  -0.01517   0.00651  -0.04644  -0.04005   2.01752
   A10        2.00794  -0.00698   0.00291  -0.01898  -0.01783   1.99011
   A11        2.06461  -0.01293   0.00708  -0.04139  -0.03514   2.02947
   A12        1.93181   0.00754  -0.00396   0.01428   0.00990   1.94171
   A13        1.59674  -0.02768   0.00160  -0.07924  -0.07989   1.51685
   A14        1.98144   0.02872  -0.00162   0.13435   0.12463   2.10607
   A15        2.29072   0.01418   0.02231   0.06120   0.07895   2.36967
   A16        1.94669   0.02132   0.00188   0.11737   0.09840   2.04508
   A17        2.16509   0.00769   0.01816   0.05979   0.05737   2.22246
   A18        1.97483  -0.00808   0.00380   0.00940  -0.00869   1.96614
    D1        0.11350   0.00329   0.00861   0.03157   0.03893   0.15244
    D2       -2.25815  -0.00793  -0.01649  -0.07778  -0.09688  -2.35503
    D3        2.42528   0.01867   0.02925   0.17065   0.20247   2.62775
    D4        0.05363   0.00745   0.00415   0.06130   0.06665   0.12029
    D5       -0.10921  -0.00317  -0.00817  -0.03079  -0.03753  -0.14674
    D6        2.28086   0.00993   0.01817   0.05771   0.07431   2.35518
    D7       -2.41015  -0.02091  -0.02806  -0.17851  -0.20753  -2.61768
    D8       -0.02008  -0.00781  -0.00172  -0.09001  -0.09569  -0.11577
    D9       -0.10644  -0.00344  -0.00792  -0.03053  -0.03752  -0.14396
   D10       -2.06999  -0.00862  -0.00519  -0.04465  -0.05130  -2.12129
   D11        1.91934  -0.00220  -0.00649  -0.03325  -0.04029   1.87905
   D12        2.13334   0.01512   0.00790   0.13885   0.14927   2.28260
   D13        0.16979   0.00994   0.01063   0.12473   0.13548   0.30527
   D14       -2.12407   0.01636   0.00933   0.13613   0.14650  -1.97757
   D15        0.09556   0.00325   0.00683   0.02791   0.03320   0.12876
   D16       -2.06226  -0.01792  -0.00255  -0.12171  -0.12328  -2.18553
   D17        2.02244   0.01540   0.00139   0.08332   0.08343   2.10587
   D18       -0.13538  -0.00576  -0.00799  -0.06630  -0.07305  -0.20843
   D19       -1.92246   0.00420   0.00605   0.03548   0.04037  -1.88209
   D20        2.20291  -0.01697  -0.00333  -0.11415  -0.11611   2.08680
   D21       -2.99456   0.00408  -0.00137   0.04413   0.03404  -2.96052
   D22       -0.53420   0.03325   0.02635   0.33232   0.35585  -0.17835
   D23       -0.99093   0.00593   0.01597   0.12850   0.14730  -0.84364
   D24        1.46942   0.03511   0.04369   0.41670   0.46911   1.93853
         Item               Value     Threshold  Converged?
 Maximum Force            0.035107     0.000450     NO 
 RMS     Force            0.016250     0.000300     NO 
 Maximum Displacement     0.663964     0.001800     NO 
 RMS     Displacement     0.150980     0.001200     NO 
 Predicted change in Energy=-6.732962D-02
 GradGradGradGradGradGradGradGradGradGradGradGradGradGradGradGradGradGrad

                          Input orientation:                          
 ---------------------------------------------------------------------
 Center     Atomic      Atomic             Coordinates (Angstroms)
 Number     Number       Type             X           Y           Z
 ---------------------------------------------------------------------
      1          6           0        0.333934    1.146370   -0.268183
      2          6           0        1.670793    1.091111   -0.105387
      3          6           0        1.844070    2.611782    0.085391
      4          6           0        0.302925    2.647084   -0.336284
      5          1           0       -0.257776    0.471190   -0.848721
      6          1           0        2.277172    0.394868   -0.656188
      7          1           0        2.505811    3.071246   -0.631074
      8          6           0       -0.425025    3.276346   -1.276186
      9          1           0       -0.274255    4.347007   -1.386500
     10          1           0       -0.908872    2.835741   -2.130506
     11          1           0        2.072220    2.932951    1.091320
 ---------------------------------------------------------------------
                    Distance matrix (angstroms):
                    1          2          3          4          5
     1  C    0.000000
     2  C    1.347869   0.000000
     3  C    2.133766   1.542356   0.000000
     4  C    1.502579   2.084570   1.598182   0.000000
     5  H    1.069118   2.157829   3.142046   2.304667   0.000000
     6  H    2.119311   1.075095   2.377440   3.012053   2.543394
     7  H    2.924703   2.212360   1.078114   2.262636   3.800667
     8  C    2.475658   3.246302   2.728430   1.345101   2.842463
     9  H    3.444504   4.003165   3.108822   2.079862   3.912983
    10  H    2.804780   3.714770   3.541052   2.173310   2.767309
    11  H    2.839324   2.232852   1.080322   2.291327   3.905497
                    6          7          8          9         10
     6  H    0.000000
     7  H    2.686243   0.000000
     8  C    3.998647   3.007995   0.000000
     9  H    4.760518   3.150715   1.086838   0.000000
    10  H    4.275786   3.736820   1.076153   1.800058   0.000000
    11  H    3.088309   1.781507   3.458213   3.693927   4.390504
                   11
    11  H    0.000000
 Stoichiometry    C5H6
 Framework group  C1[X(C5H6)]
 Deg. of freedom    27
 Full point group                 C1      NOp   1
 Largest Abelian subgroup         C1      NOp   1
 Largest concise Abelian subgroup C1      NOp   1
                         Standard orientation:                         
 ---------------------------------------------------------------------
 Center     Atomic      Atomic             Coordinates (Angstroms)
 Number     Number       Type             X           Y           Z
 ---------------------------------------------------------------------
      1          6           0       -0.399556   -1.032845   -0.276095
      2          6           0       -1.418882   -0.276701    0.177746
      3          6           0       -0.688293    1.066373   -0.025357
      4          6           0        0.561525    0.120531   -0.337645
      5          1           0       -0.174073   -2.032859    0.027455
      6          1           0       -2.043928   -0.602233    0.989642
      7          1           0       -0.583325    1.649323    0.875466
      8          6           0        1.815762   -0.005720    0.131658
      9          1           0        2.406500    0.902286    0.219808
     10          1           0        2.217224   -0.819193    0.710617
     11          1           0       -1.045730    1.672846   -0.844824
 ---------------------------------------------------------------------
 Rotational constants (GHZ):          11.2396512           5.1879734           3.8659064
 Standard basis: 3-21G (6D, 7F)
 There are    57 symmetry adapted cartesian basis functions of A   symmetry.
 There are    57 symmetry adapted basis functions of A   symmetry.
    57 basis functions,    93 primitive gaussians,    57 cartesian basis functions
    18 alpha electrons       18 beta electrons
       nuclear repulsion energy       152.2037021066 Hartrees.
 NAtoms=   11 NActive=   11 NUniq=   11 SFac= 1.00D+00 NAtFMM=   60 NAOKFM=F Big=F
 Integral buffers will be    131072 words long.
 Raffenetti 1 integral format.
 Two-electron integral symmetry is turned on.
 One-electron integrals computed using PRISM.
 NBasis=    57 RedAO= T EigKep=  5.03D-03  NBF=    57
 NBsUse=    57 1.00D-06 EigRej= -1.00D+00 NBFU=    57
 Initial guess from the checkpoint file:  "meth_cyclobutadiene_isomer.chk"
 B after Tr=     0.000000    0.000000    0.000000
         Rot=    0.999686    0.004810    0.001579    0.024530 Ang=   2.87 deg.
 ExpMin= 1.83D-01 ExpMax= 1.72D+02 ExpMxC= 1.72D+02 IAcc=3 IRadAn=         5 AccDes= 0.00D+00
 Harris functional with IExCor=  205 and IRadAn=       5 diagonalized for initial guess.
 HarFok:  IExCor=  205 AccDes= 0.00D+00 IRadAn=         5 IDoV= 1 UseB2=F ITyADJ=14
 ICtDFT=  3500011 ScaDFX=  1.000000  1.000000  1.000000  1.000000
 FoFCou: FMM=F IPFlag=           0 FMFlag=      100000 FMFlg1=           0
         NFxFlg=           0 DoJE=T BraDBF=F KetDBF=T FulRan=T
         wScrn=  0.000000 ICntrl=       500 IOpCl=  0 I1Cent=   200000004 NGrid=           0
         NMat0=    1 NMatS0=      1 NMatT0=    0 NMatD0=    1 NMtDS0=    0 NMtDT0=    0
 Petite list used in FoFCou.
 Keep R1 ints in memory in canonical form, NReq=2188434.
 Requested convergence on RMS density matrix=1.00D-08 within 128 cycles.
 Requested convergence on MAX density matrix=1.00D-06.
 Requested convergence on             energy=1.00D-06.
 No special actions if energy rises.
 SCF Done:  E(RHF) =  -191.601087910     A.U. after   14 cycles
            NFock= 14  Conv=0.96D-08     -V/T= 2.0023
 Calling FoFJK, ICntrl=      2127 FMM=F ISym2X=0 I1Cent= 0 IOpClX= 0 NMat=1 NMatS=1 NMatT=0.
 ***** Axes restored to original set *****
 -------------------------------------------------------------------
 Center     Atomic                   Forces (Hartrees/Bohr)
 Number     Number              X              Y              Z
 -------------------------------------------------------------------
      1        6           0.027588006    0.005240813   -0.025405889
      2        6          -0.023958705    0.004817083   -0.027239790
      3        6          -0.001405152    0.010764268    0.019819998
      4        6          -0.026205825   -0.032040794   -0.037419125
      5        1          -0.011467217   -0.006324284    0.015100958
      6        1           0.012396583   -0.003606332    0.023412481
      7        1          -0.002139825    0.003373164   -0.001542522
      8        6           0.041485142    0.033639112    0.019550099
      9        1           0.001933815   -0.005976531   -0.004431013
     10        1          -0.018088123   -0.009836525    0.019379658
     11        1          -0.000138699   -0.000049974   -0.001224855
 -------------------------------------------------------------------
 Cartesian Forces:  Max     0.041485142 RMS     0.018769018

 GradGradGradGradGradGradGradGradGradGradGradGradGradGradGradGradGradGrad
 Berny optimization.
 Using GEDIIS/GDIIS optimizer.
 FormGI is forming the generalized inverse of G from B-inverse, IUseBI=4.
 Internal  Forces:  Max     0.029475668 RMS     0.008243840
 Search for a local minimum.
 Step number   4 out of a maximum of   63
 All quantities printed in internal units (Hartrees-Bohrs-Radians)
 Mixed Optimization -- RFO/linear search
 Update second derivatives using D2CorX and points    3    4
 DE= -5.74D-02 DEPred=-6.73D-02 R= 8.53D-01
 TightC=F SS=  1.41D+00  RLast= 8.32D-01 DXNew= 8.4853D-01 2.4971D+00
 Trust test= 8.53D-01 RLast= 8.32D-01 DXMaxT set to 8.49D-01
 ITU=  1  0  1  0
 Use linear search instead of GDIIS.
     Eigenvalues ---    0.00244   0.00290   0.00806   0.01153   0.01470
     Eigenvalues ---    0.02613   0.05306   0.05808   0.06282   0.08229
     Eigenvalues ---    0.09149   0.11353   0.13951   0.15631   0.16439
     Eigenvalues ---    0.19838   0.25842   0.25871   0.28029   0.28285
     Eigenvalues ---    0.32407   0.32553   0.36975   0.37137   0.37219
     Eigenvalues ---    0.37230   0.47092
 RFO step:  Lambda=-5.23827892D-02 EMin= 2.43538447D-03
 Quartic linear search produced a step of  0.95282.
 Iteration  1 RMS(Cart)=  0.09890947 RMS(Int)=  0.09531947
 Iteration  2 RMS(Cart)=  0.05039064 RMS(Int)=  0.05084965
 Iteration  3 RMS(Cart)=  0.03964379 RMS(Int)=  0.01684929
 Iteration  4 RMS(Cart)=  0.00969416 RMS(Int)=  0.01373372
 Iteration  5 RMS(Cart)=  0.00028324 RMS(Int)=  0.01372998
 Iteration  6 RMS(Cart)=  0.00000606 RMS(Int)=  0.01372997
 Iteration  7 RMS(Cart)=  0.00000019 RMS(Int)=  0.01372997
 Variable       Old X    -DE/DX   Delta X   Delta X   Delta X     New X
                                 (Linear)    (Quad)   (Total)
    R1        2.54710  -0.00583   0.03682  -0.06509  -0.02429   2.52281
    R2        2.83946   0.00248   0.07441  -0.06396   0.01497   2.85443
    R3        2.02034   0.00214   0.00085   0.00523   0.00608   2.02641
    R4        2.91463  -0.00148  -0.00895   0.00871  -0.00443   2.91020
    R5        2.03164  -0.00267   0.01665  -0.02792  -0.01127   2.02036
    R6        3.02013  -0.00609   0.01531  -0.03389  -0.02217   2.99796
    R7        2.03734   0.00115  -0.00059   0.00544   0.00486   2.04220
    R8        2.04151  -0.00118  -0.01238   0.00818  -0.00420   2.03731
    R9        2.54187  -0.02948   0.04530  -0.17534  -0.13005   2.41183
   R10        2.05383  -0.00517  -0.00238  -0.01466  -0.01705   2.03678
   R11        2.03363  -0.00322  -0.01762   0.00541  -0.01222   2.02142
    A1        1.63774   0.00080   0.05354  -0.04260   0.00856   1.64629
    A2        2.20016   0.00514   0.04831   0.07564   0.08777   2.28793
    A3        2.20771   0.00391   0.04143   0.06626   0.07258   2.28028
    A4        1.65685  -0.00065  -0.06391   0.06173  -0.00472   1.65213
    A5        2.12244   0.00745   0.12586   0.02388   0.12904   2.25148
    A6        2.26336   0.00108   0.06346  -0.00481   0.02928   2.29264
    A7        1.45132   0.00198   0.07770  -0.06976   0.01277   1.46409
    A8        1.98990   0.00512   0.01346   0.05784   0.06837   2.05827
    A9        2.01752  -0.00418  -0.03816  -0.00088  -0.03925   1.97826
   A10        1.99011   0.00228  -0.01699   0.03869   0.01635   2.00646
   A11        2.02947  -0.00515  -0.03348  -0.02298  -0.05729   1.97218
   A12        1.94171   0.00035   0.00944  -0.00999  -0.00010   1.94161
   A13        1.51685  -0.00175  -0.07612   0.06658  -0.01088   1.50597
   A14        2.10607   0.00598   0.11875  -0.00850   0.09452   2.20059
   A15        2.36967   0.00252   0.07523  -0.01647   0.04207   2.41174
   A16        2.04508   0.00918   0.09376   0.02578   0.07982   2.12490
   A17        2.22246  -0.01099   0.05466  -0.09086  -0.07591   2.14654
   A18        1.96614   0.00572  -0.00828   0.09218   0.04412   2.01026
    D1        0.15244  -0.00156   0.03710  -0.05900  -0.02356   0.12888
    D2       -2.35503  -0.00979  -0.09231  -0.14644  -0.25264  -2.60767
    D3        2.62775   0.01106   0.19292   0.07230   0.27391   2.90167
    D4        0.12029   0.00284   0.06351  -0.01514   0.04484   0.16512
    D5       -0.14674   0.00126  -0.03576   0.05598   0.02181  -0.12493
    D6        2.35518   0.00731   0.07081   0.08888   0.15992   2.51509
    D7       -2.61768  -0.01216  -0.19774  -0.08131  -0.28259  -2.90027
    D8       -0.11577  -0.00611  -0.09117  -0.04841  -0.14448  -0.26025
    D9       -0.14396   0.00110  -0.03575   0.05569   0.02094  -0.12303
   D10       -2.12129  -0.00257  -0.04888   0.03996  -0.00994  -2.13124
   D11        1.87905  -0.00411  -0.03839  -0.00306  -0.03960   1.83945
   D12        2.28260   0.01400   0.14222   0.17515   0.31570   2.59830
   D13        0.30527   0.01033   0.12909   0.15943   0.28482   0.59009
   D14       -1.97757   0.00879   0.13959   0.11640   0.25516  -1.72241
   D15        0.12876  -0.00137   0.03163  -0.05128  -0.02022   0.10854
   D16       -2.18553  -0.01125  -0.11746  -0.11229  -0.22540  -2.41093
   D17        2.10587   0.00524   0.07949  -0.01575   0.06248   2.16835
   D18       -0.20843  -0.00464  -0.06960  -0.07675  -0.14270  -0.35113
   D19       -1.88209   0.00286   0.03847  -0.01387   0.02192  -1.86018
   D20        2.08680  -0.00702  -0.11063  -0.07487  -0.18326   1.90354
   D21       -2.96052   0.00106   0.03243   0.09320   0.11714  -2.84338
   D22       -0.17835   0.01635   0.33906   0.20924   0.53789   0.35954
   D23       -0.84364   0.01033   0.14035   0.18788   0.33864  -0.50500
   D24        1.93853   0.02562   0.44698   0.30392   0.75939   2.69792
         Item               Value     Threshold  Converged?
 Maximum Force            0.029476     0.000450     NO 
 RMS     Force            0.008244     0.000300     NO 
 Maximum Displacement     0.607953     0.001800     NO 
 RMS     Displacement     0.174360     0.001200     NO 
 Predicted change in Energy=-5.158202D-02
 GradGradGradGradGradGradGradGradGradGradGradGradGradGradGradGradGradGrad

                          Input orientation:                          
 ---------------------------------------------------------------------
 Center     Atomic      Atomic             Coordinates (Angstroms)
 Number     Number       Type             X           Y           Z
 ---------------------------------------------------------------------
      1          6           0        0.392863    1.124700   -0.448517
      2          6           0        1.694020    1.077938   -0.153440
      3          6           0        1.834689    2.600072    0.033543
      4          6           0        0.343305    2.633279   -0.506364
      5          1           0       -0.260688    0.387537   -0.872023
      6          1           0        2.413629    0.327158   -0.401496
      7          1           0        2.554166    3.121294   -0.581728
      8          6           0       -0.362897    3.332019   -1.307574
      9          1           0       -0.157042    4.375444   -1.482445
     10          1           0       -1.226473    2.948286   -1.808791
     11          1           0        1.915427    2.897970    1.066518
 ---------------------------------------------------------------------
                    Distance matrix (angstroms):
                    1          2          3          4          5
     1  C    0.000000
     2  C    1.335015   0.000000
     3  C    2.118481   1.540013   0.000000
     4  C    1.510500   2.089993   1.586451   0.000000
     5  H    1.072333   2.194060   3.178988   2.354118   0.000000
     6  H    2.172965   1.069130   2.385491   3.100875   2.716066
     7  H    2.945397   2.258005   1.080684   2.265335   3.934603
     8  C    2.486244   3.262486   2.676514   1.276283   2.978276
     9  H    3.455248   4.008270   3.068738   2.058694   4.035685
    10  H    2.792501   3.842872   3.589729   2.063916   2.892699
    11  H    2.785321   2.202234   1.078100   2.239550   3.846517
                    6          7          8          9         10
     6  H    0.000000
     7  H    2.803468   0.000000
     8  C    4.190378   3.013390   0.000000
     9  H    4.915833   3.120069   1.077818   0.000000
    10  H    4.701184   3.978548   1.069688   1.812999   0.000000
    11  H    3.002056   1.781733   3.318956   3.602120   4.259280
                   11
    11  H    0.000000
 Stoichiometry    C5H6
 Framework group  C1[X(C5H6)]
 Deg. of freedom    27
 Full point group                 C1      NOp   1
 Largest Abelian subgroup         C1      NOp   1
 Largest concise Abelian subgroup C1      NOp   1
                         Standard orientation:                         
 ---------------------------------------------------------------------
 Center     Atomic      Atomic             Coordinates (Angstroms)
 Number     Number       Type             X           Y           Z
 ---------------------------------------------------------------------
      1          6           0       -0.431094   -1.038041   -0.165637
      2          6           0       -1.444739   -0.226988    0.145782
      3          6           0       -0.635646    1.067699   -0.056191
      4          6           0        0.588784    0.074236   -0.231200
      5          1           0       -0.305254   -2.093941   -0.027302
      6          1           0       -2.314797   -0.432079    0.732277
      7          1           0       -0.554297    1.749188    0.778574
      8          6           0        1.810042   -0.003368    0.131300
      9          1           0        2.404896    0.876988    0.312447
     10          1           0        2.332015   -0.932405    0.224401
     11          1           0       -0.886648    1.591016   -0.964727
 ---------------------------------------------------------------------
 Rotational constants (GHZ):          11.7911951           5.1993230           3.8089339
 Standard basis: 3-21G (6D, 7F)
 There are    57 symmetry adapted cartesian basis functions of A   symmetry.
 There are    57 symmetry adapted basis functions of A   symmetry.
    57 basis functions,    93 primitive gaussians,    57 cartesian basis functions
    18 alpha electrons       18 beta electrons
       nuclear repulsion energy       153.1738075139 Hartrees.
 NAtoms=   11 NActive=   11 NUniq=   11 SFac= 1.00D+00 NAtFMM=   60 NAOKFM=F Big=F
 Integral buffers will be    131072 words long.
 Raffenetti 1 integral format.
 Two-electron integral symmetry is turned on.
 One-electron integrals computed using PRISM.
 NBasis=    57 RedAO= T EigKep=  3.51D-03  NBF=    57
 NBsUse=    57 1.00D-06 EigRej= -1.00D+00 NBFU=    57
 Initial guess from the checkpoint file:  "meth_cyclobutadiene_isomer.chk"
 B after Tr=    -0.000000   -0.000000   -0.000000
         Rot=    0.999782    0.013173    0.005982    0.015074 Ang=   2.39 deg.
 ExpMin= 1.83D-01 ExpMax= 1.72D+02 ExpMxC= 1.72D+02 IAcc=3 IRadAn=         5 AccDes= 0.00D+00
 Harris functional with IExCor=  205 and IRadAn=       5 diagonalized for initial guess.
 HarFok:  IExCor=  205 AccDes= 0.00D+00 IRadAn=         5 IDoV= 1 UseB2=F ITyADJ=14
 ICtDFT=  3500011 ScaDFX=  1.000000  1.000000  1.000000  1.000000
 FoFCou: FMM=F IPFlag=           0 FMFlag=      100000 FMFlg1=           0
         NFxFlg=           0 DoJE=T BraDBF=F KetDBF=T FulRan=T
         wScrn=  0.000000 ICntrl=       500 IOpCl=  0 I1Cent=   200000004 NGrid=           0
         NMat0=    1 NMatS0=      1 NMatT0=    0 NMatD0=    1 NMtDS0=    0 NMtDT0=    0
 Petite list used in FoFCou.
 Keep R1 ints in memory in canonical form, NReq=2188364.
 Requested convergence on RMS density matrix=1.00D-08 within 128 cycles.
 Requested convergence on MAX density matrix=1.00D-06.
 Requested convergence on             energy=1.00D-06.
 No special actions if energy rises.
 SCF Done:  E(RHF) =  -191.642638876     A.U. after   14 cycles
            NFock= 14  Conv=0.50D-08     -V/T= 2.0013
 Calling FoFJK, ICntrl=      2127 FMM=F ISym2X=0 I1Cent= 0 IOpClX= 0 NMat=1 NMatS=1 NMatT=0.
 ***** Axes restored to original set *****
 -------------------------------------------------------------------
 Center     Atomic                   Forces (Hartrees/Bohr)
 Number     Number              X              Y              Z
 -------------------------------------------------------------------
      1        6           0.005763896   -0.003042160   -0.008089735
      2        6          -0.007581330    0.003416924   -0.022226671
      3        6          -0.007081130    0.012665748    0.007202818
      4        6           0.036786686   -0.062869588    0.017556748
      5        1          -0.002968489    0.000949950    0.008615214
      6        1           0.002503301   -0.002063329    0.016779193
      7        1          -0.000383159   -0.001564458   -0.000993157
      8        6          -0.027419262    0.055918075   -0.019063774
      9        1           0.000426421   -0.001721341   -0.001619855
     10        1          -0.002268713   -0.003733563    0.000512435
     11        1           0.002221778    0.002043743    0.001326783
 -------------------------------------------------------------------
 Cartesian Forces:  Max     0.062869588 RMS     0.018426985

 GradGradGradGradGradGradGradGradGradGradGradGradGradGradGradGradGradGrad
 Berny optimization.
 Using GEDIIS/GDIIS optimizer.
 FormGI is forming the generalized inverse of G from B-inverse, IUseBI=4.
 Internal  Forces:  Max     0.056481687 RMS     0.008698828
 Search for a local minimum.
 Step number   5 out of a maximum of   63
 All quantities printed in internal units (Hartrees-Bohrs-Radians)
 Mixed Optimization -- RFO/linear search
 Update second derivatives using D2CorX and points    4    5
 DE= -4.16D-02 DEPred=-5.16D-02 R= 8.06D-01
 TightC=F SS=  1.41D+00  RLast= 1.31D+00 DXNew= 1.4270D+00 3.9166D+00
 Trust test= 8.06D-01 RLast= 1.31D+00 DXMaxT set to 1.43D+00
 ITU=  1  1  0  1  0
 Use linear search instead of GDIIS.
     Eigenvalues ---    0.00237   0.00253   0.00343   0.00569   0.00808
     Eigenvalues ---    0.02126   0.05387   0.06061   0.06225   0.08278
     Eigenvalues ---    0.12183   0.13279   0.15251   0.16165   0.16459
     Eigenvalues ---    0.20746   0.25770   0.26007   0.28049   0.30215
     Eigenvalues ---    0.32473   0.32641   0.36934   0.37216   0.37230
     Eigenvalues ---    0.37271   0.55996
 RFO step:  Lambda=-2.45822115D-02 EMin= 2.36877368D-03
 Quartic linear search produced a step of  0.19711.
 Iteration  1 RMS(Cart)=  0.08239908 RMS(Int)=  0.01866606
 Iteration  2 RMS(Cart)=  0.01492394 RMS(Int)=  0.00635964
 Iteration  3 RMS(Cart)=  0.00034977 RMS(Int)=  0.00634753
 Iteration  4 RMS(Cart)=  0.00000228 RMS(Int)=  0.00634753
 Iteration  5 RMS(Cart)=  0.00000002 RMS(Int)=  0.00634753
 Variable       Old X    -DE/DX   Delta X   Delta X   Delta X     New X
                                 (Linear)    (Quad)   (Total)
    R1        2.52281  -0.00227  -0.00479  -0.02134  -0.02308   2.49973
    R2        2.85443   0.00011   0.00295  -0.00890  -0.00462   2.84981
    R3        2.02641  -0.00225   0.00120  -0.00399  -0.00279   2.02362
    R4        2.91020   0.00120  -0.00087   0.00928   0.00777   2.91797
    R5        2.02036  -0.00076  -0.00222  -0.00518  -0.00740   2.01296
    R6        2.99796  -0.00677  -0.00437  -0.03394  -0.04153   2.95643
    R7        2.04220  -0.00044   0.00096  -0.00067   0.00029   2.04249
    R8        2.03731   0.00200  -0.00083   0.00469   0.00386   2.04118
    R9        2.41183   0.05648  -0.02563   0.15106   0.12543   2.53725
   R10        2.03678  -0.00132  -0.00336  -0.00797  -0.01133   2.02545
   R11        2.02142   0.00293  -0.00241   0.00607   0.00366   2.02508
    A1        1.64629  -0.00234   0.00169  -0.02102  -0.01921   1.62708
    A2        2.28793   0.00217   0.01730   0.04693   0.04599   2.33391
    A3        2.28028   0.00208   0.01431   0.03725   0.03247   2.31276
    A4        1.65213   0.00081  -0.00093   0.01913   0.01535   1.66747
    A5        2.25148   0.00324   0.02543   0.04592   0.05480   2.30627
    A6        2.29264  -0.00141   0.00577   0.01646   0.00246   2.29510
    A7        1.46409  -0.00088   0.00252  -0.01951  -0.01434   1.44975
    A8        2.05827   0.00250   0.01348   0.01904   0.02921   2.08748
    A9        1.97826  -0.00228  -0.00774  -0.01511  -0.02186   1.95641
   A10        2.00646   0.00244   0.00322   0.03060   0.03108   2.03754
   A11        1.97218  -0.00139  -0.01129  -0.02027  -0.03136   1.94082
   A12        1.94161  -0.00048  -0.00002   0.00056   0.00138   1.94299
   A13        1.50597   0.00259  -0.00214   0.02684   0.02384   1.52981
   A14        2.20059   0.00832   0.01863   0.07801   0.09283   2.29342
   A15        2.41174  -0.00874   0.00829  -0.02443  -0.03129   2.38045
   A16        2.12490   0.00304   0.01573   0.02300   0.03391   2.15881
   A17        2.14654  -0.00476  -0.01496  -0.04162  -0.06141   2.08513
   A18        2.01026   0.00177   0.00870   0.02507   0.02894   2.03920
    D1        0.12888  -0.00102  -0.00464  -0.02462  -0.02844   0.10043
    D2       -2.60767  -0.00617  -0.04980  -0.20427  -0.26328  -2.87095
    D3        2.90167   0.00403   0.05399   0.14046   0.20169   3.10336
    D4        0.16512  -0.00112   0.00884  -0.03919  -0.03314   0.13198
    D5       -0.12493   0.00068   0.00430   0.02246   0.02619  -0.09874
    D6        2.51509  -0.00080   0.03152   0.11109   0.15126   2.66635
    D7       -2.90027  -0.00437  -0.05570  -0.14481  -0.20414  -3.10440
    D8       -0.26025  -0.00585  -0.02848  -0.05617  -0.07907  -0.33932
    D9       -0.12303   0.00065   0.00413   0.02203   0.02567  -0.09736
   D10       -2.13124  -0.00198  -0.00196  -0.00486  -0.00620  -2.13744
   D11        1.83945  -0.00137  -0.00781  -0.00928  -0.01505   1.82440
   D12        2.59830   0.00775   0.06223   0.21942   0.27743   2.87573
   D13        0.59009   0.00512   0.05614   0.19253   0.24556   0.83565
   D14       -1.72241   0.00573   0.05029   0.18811   0.23671  -1.48570
   D15        0.10854  -0.00070  -0.00399  -0.02035  -0.02350   0.08504
   D16       -2.41093  -0.01012  -0.04443  -0.19663  -0.23429  -2.64522
   D17        2.16835   0.00197   0.01232  -0.00452   0.00642   2.17477
   D18       -0.35113  -0.00745  -0.02813  -0.18079  -0.20437  -0.55549
   D19       -1.86018   0.00223   0.00432   0.00546   0.00699  -1.85319
   D20        1.90354  -0.00719  -0.03612  -0.17082  -0.20380   1.69973
   D21       -2.84338  -0.00197   0.02309  -0.04878  -0.02761  -2.87099
   D22        0.35954  -0.00303   0.10602  -0.18308  -0.07901   0.28053
   D23       -0.50500   0.00519   0.06675   0.14523   0.21393  -0.29107
   D24        2.69792   0.00412   0.14968   0.01093   0.16253   2.86044
         Item               Value     Threshold  Converged?
 Maximum Force            0.056482     0.000450     NO 
 RMS     Force            0.008699     0.000300     NO 
 Maximum Displacement     0.396558     0.001800     NO 
 RMS     Displacement     0.092083     0.001200     NO 
 Predicted change in Energy=-1.975858D-02
 GradGradGradGradGradGradGradGradGradGradGradGradGradGradGradGradGradGrad

                          Input orientation:                          
 ---------------------------------------------------------------------
[...]
 ! A16   A(4,8,9)              121.4836         -DE/DX =    0.0                 !
 ! A17   A(4,8,10)             121.58           -DE/DX =    0.0                 !
 ! A18   A(9,8,10)             116.9363         -DE/DX =    0.0                 !
 ! D1    D(4,1,2,3)              0.0041         -DE/DX =    0.0                 !
 ! D2    D(4,1,2,6)           -180.0035         -DE/DX =    0.0                 !
 ! D3    D(5,1,2,3)            180.0299         -DE/DX =    0.0                 !
 ! D4    D(5,1,2,6)              0.0222         -DE/DX =    0.0                 !
 ! D5    D(2,1,4,3)             -0.0041         -DE/DX =    0.0                 !
 ! D6    D(2,1,4,8)            179.9856         -DE/DX =    0.0                 !
 ! D7    D(5,1,4,3)           -180.0293         -DE/DX =    0.0                 !
 ! D8    D(5,1,4,8)             -0.0396         -DE/DX =    0.0                 !
 ! D9    D(1,2,3,4)             -0.004          -DE/DX =    0.0                 !
 ! D10   D(1,2,3,7)           -114.028          -DE/DX =    0.0                 !
 ! D11   D(1,2,3,11)           114.0133         -DE/DX =    0.0                 !
 ! D12   D(6,2,3,4)            180.0035         -DE/DX =    0.0                 !
 ! D13   D(6,2,3,7)             65.9795         -DE/DX =    0.0                 !
 ! D14   D(6,2,3,11)           -65.9793         -DE/DX =    0.0                 !
 ! D15   D(2,3,4,1)              0.0035         -DE/DX =    0.0                 !
 ! D16   D(2,3,4,8)           -179.9865         -DE/DX =    0.0                 !
 ! D17   D(7,3,4,1)            115.0485         -DE/DX =    0.0                 !
 ! D18   D(7,3,4,8)            -64.9415         -DE/DX =    0.0                 !
 ! D19   D(11,3,4,1)          -115.0506         -DE/DX =    0.0                 !
 ! D20   D(11,3,4,8)            64.9594         -DE/DX =    0.0                 !
 ! D21   D(1,4,8,9)           -179.9875         -DE/DX =    0.0                 !
 ! D22   D(1,4,8,10)             0.0174         -DE/DX =    0.0                 !
 ! D23   D(3,4,8,9)             -0.0021         -DE/DX =    0.0                 !
 ! D24   D(3,4,8,10)          -179.9972         -DE/DX =    0.0                 !
 --------------------------------------------------------------------------------
 GradGradGradGradGradGradGradGradGradGradGradGradGradGradGradGradGradGrad


 ----------------------------------------------------------------------

 Electric dipole moment (input orientation):
 (Debye = 10**-18 statcoulomb cm , SI units = C m)
                  (au)            (Debye)         (10**-30 SI)
   Tot        0.198175D+00      0.503711D+00      0.168020D+01
   x          0.152255D+00      0.386994D+00      0.129087D+01
   y         -0.100811D+00     -0.256237D+00     -0.854714D+00
   z          0.769993D-01      0.195713D+00      0.652827D+00

 Dipole polarizability, Alpha (input orientation).
 (esu units = cm**3 , SI units = C**2 m**2 J**-1)
 Alpha(0;0):
               (au)            (10**-24 esu)      (10**-40 SI)
   iso        0.459802D+02      0.681356D+01      0.758111D+01
   aniso      0.452386D+02      0.670367D+01      0.745884D+01
   xx         0.560073D+02      0.829943D+01      0.923436D+01
   yx        -0.101323D+02     -0.150145D+01     -0.167059D+01
   yy         0.532454D+02      0.789015D+01      0.877898D+01
   zx         0.178654D+02      0.264738D+01      0.294560D+01
   zy        -0.584520D+01     -0.866169D+00     -0.963743D+00
   zz         0.286878D+02      0.425109D+01      0.472998D+01

 First dipole hyperpolarizability, Beta (input orientation).
 ||, _|_  parallel and perpendicular components, (z) with respect to z axis,
 vector components x,y,z.  Values do not include the 1/n! factor of 1/2.
 (esu units = statvolt**-1 cm**4 , SI units = C**3 m**3 J**-2)
 Beta(0;0,0):
               (au)            (10**-30 esu)      (10**-50 SI)
   || (z)     0.100693D+02      0.869910D-01      0.322859D-01
   _|_(z)     0.335644D+01      0.289970D-01      0.107620D-01
   x          0.104053D+03      0.898936D+00      0.333631D+00
   y          0.106131D+02      0.916891D-01      0.340295D-01
   z          0.503466D+02      0.434955D+00      0.161429D+00
   ||         0.232159D+02      0.200567D+00      0.744385D-01
   xxx        0.152503D+02      0.131751D+00      0.488979D-01
   xxy       -0.183016D+02     -0.158111D+00     -0.586815D-01
   yxy        0.757253D+01      0.654208D-01      0.242803D-01
   yyy        0.124969D+02      0.107964D+00      0.400697D-01
   xxz       -0.165717D+02     -0.143167D+00     -0.531348D-01
   yxz       -0.168266D+02     -0.145369D+00     -0.539522D-01
   yyz        0.429238D+01      0.370828D-01      0.137629D-01
   zxz        0.118615D+02      0.102474D+00      0.380322D-01
   zyz        0.934234D+01      0.807105D-01      0.299549D-01
   zzz        0.290615D+02      0.251069D+00      0.931817D-01

 ----------------------------------------------------------------------

 Dipole orientation:
     6          2.13975234          1.19114439         -0.77872638
     6          2.59973997          2.39915322          1.38416947
     6          3.52759676          4.85186277          0.09146966
     6          2.95970572          3.35937159         -2.38878059
     1          1.44184338         -0.64755526         -1.22702318
     1          2.40880409          1.89024313          3.32581909
     1          5.49994649          5.30215529          0.37504641
     6          3.14422975          3.85171566         -4.80833190
     1          3.82254397          5.64291442         -5.47620292
     1          2.62434950          2.48365773         -6.21375516
     1          2.34924796          6.49587834          0.37785840

 Electric dipole moment (dipole orientation):
 (Debye = 10**-18 statcoulomb cm , SI units = C m)
                  (au)            (Debye)         (10**-30 SI)
   Tot        0.198175D+00      0.503711D+00      0.168020D+01
   x          0.000000D+00      0.000000D+00      0.000000D+00
   y          0.000000D+00      0.000000D+00      0.000000D+00
   z          0.198175D+00      0.503711D+00      0.168020D+01

 Dipole polarizability, Alpha (dipole orientation).
 (esu units = cm**3 , SI units = C**2 m**2 J**-1)
 Alpha(0;0):
               (au)            (10**-24 esu)      (10**-40 SI)
   iso        0.459802D+02      0.681356D+01      0.758111D+01
   aniso      0.452386D+02      0.670367D+01      0.745884D+01
   xx         0.231298D+02      0.342748D+01      0.381358D+01
   yx         0.868085D+01      0.128637D+01      0.143128D+01
   yy         0.427459D+02      0.633429D+01      0.704785D+01
   zx        -0.155495D+00     -0.230420D-01     -0.256377D-01
   zy        -0.538804D+00     -0.798425D-01     -0.888368D-01
   zz         0.720649D+02      0.106789D+02      0.118819D+02

 First dipole hyperpolarizability, Beta (dipole orientation).
 ||, _|_  parallel and perpendicular components, (z) with respect to z axis,
 vector components x,y,z.  Values do not include the 1/n! factor of 1/2.
 (esu units = statvolt**-1 cm**4 , SI units = C**3 m**3 J**-2)
 Beta(0;0,0):
               (au)            (10**-30 esu)      (10**-50 SI)
   || (z)     0.188210D+02      0.162599D+00      0.603470D-01
   _|_(z)     0.627368D+01      0.541997D-01      0.201157D-01
   x          0.241272D+02      0.208440D+00      0.773606D-01
   y          0.635336D+02      0.548881D+00      0.203712D+00
   z          0.941052D+02      0.812995D+00      0.301735D+00
   ||         0.232159D+02      0.200567D+00      0.744385D-01
   xxx        0.270478D+02      0.233672D+00      0.867250D-01
   xxy        0.169652D+02      0.146566D+00      0.543966D-01
   yxy       -0.165752D+02     -0.143197D+00     -0.531460D-01
   yyy        0.106552D+02      0.920522D-01      0.341643D-01
   xxz        0.108166D+02      0.934473D-01      0.346820D-01
   yxz       -0.113062D+02     -0.976765D-01     -0.362517D-01
   yyz       -0.146249D+02     -0.126348D+00     -0.468928D-01
   zxz       -0.243023D+01     -0.209953D-01     -0.779219D-02
   zyz       -0.644250D+01     -0.556582D-01     -0.206570D-01
   zzz        0.351767D+02      0.303899D+00      0.112789D+00

 ----------------------------------------------------------------------
 1\1\GINC-IISERK51\Freq\RHF\3-21G\C5H6\GAUSSIAN\09-Jun-2025\0\\#N Geom=
 AllCheck Guess=TCheck SCRF=Check GenChk RHF/3-21G Freq\\Optimisation\\
 0,1\C,0.5117857817,1.0411874325,-0.7094016718\C,1.7109973841,1.0475850
 645,-0.1265212758\C,1.8330350682,2.5898012378,-0.1092901856\C,0.429600
 9944,2.5302749081,-0.7901320146\H,-0.1566600862,0.2662486738,-1.012795
 5064\H,2.3665053718,0.2773557745,0.2133284819\H,2.6154355804,3.0011126
 018,-0.731646479\C,-0.4246203073,3.4210635344,-1.2300944498\H,-0.22299
 87627,4.4730945451,-1.1610132074\H,-1.3579339726,3.1329297916,-1.67596
 69377\H,1.8358511481,3.0450430859,0.8712164163\\Version=EM64L-G16RevB.
 01\State=1-A\HF=-191.6646131\RMSD=2.057e-09\RMSF=3.676e-05\ZeroPoint=0
 .098487\Thermal=0.1028542\Dipole=0.1522551,-0.1008113,0.0769993\Dipole
 Deriv=-0.0881529,0.0844082,0.0542483,0.0899859,0.0014589,0.0380549,0.0
 539934,0.0352765,-0.179397,0.0079729,0.0245354,0.1374561,-0.0119426,-0
 .0235583,-0.0126674,0.1386118,0.0050204,-0.2087646,0.0172209,-0.037671
 3,-0.1238949,0.060912,0.0131244,0.0367465,-0.1266048,-0.0112654,0.2127
 939,0.0606637,-0.0679966,0.064817,-0.1668543,0.2889632,-0.0909265,0.06
 74554,-0.0428256,-0.034707,0.0686709,-0.0737494,-0.0701678,-0.0493016,
 -0.0595236,-0.0163661,-0.0707723,-0.0281919,0.1835904,0.0609485,0.0442
 892,-0.0666402,0.0677121,-0.052227,0.039689,-0.0673474,0.0283609,0.161
 969,-0.0593037,-0.0556824,0.058503,-0.1012901,-0.0015005,0.0146893,0.0
 798567,0.0328857,0.0166027,-0.1374248,0.1494338,0.1211533,0.2042038,-0
 .1011978,0.091192,0.1196462,0.0645929,-0.3386407,0.0556446,-0.0407747,
 -0.0551532,0.0042677,-0.0915282,0.0093114,-0.0563891,-0.0125973,0.1442
 996,-0.0398097,-0.0165564,-0.1090499,-0.0440722,0.0330807,-0.0172392,-
 0.1082626,-0.0038788,0.1328438,0.0535696,-0.0102359,-0.0112718,-0.0536
 207,-0.0070918,-0.092484,-0.0301871,-0.0673774,-0.09059\Polar=56.00732
 02,-10.1322839,53.2453741,17.8653891,-5.8451953,28.6878086\PolarDeriv=
 -12.9612545,4.9601334,-3.1192695,-2.6568177,2.4192646,0.6496343,6.6367
 931,-5.3942427,4.2974276,3.1361764,-2.7370191,1.537292,1.2124013,2.259
 8918,-1.6281353,-7.4190493,1.3103473,-7.4372784,14.1608685,-3.5897394,
 2.5879177,2.9423129,-0.4904829,-0.4675605,1.3043546,-0.0891414,-2.9700
 373,0.9099413,-0.0392771,0.4573016,-1.1643543,-0.1927472,1.1907303,7.6
 60689,-2.8482336,7.9233151,0.0255902,-1.7973689,-1.0437984,3.8079257,0
 .0697042,0.5162697,-2.2620013,-1.3991047,2.082681,0.1458094,-0.8682034
 ,-2.746327,5.1058802,0.0066494,-0.6761423,-2.1283272,-2.0339857,-4.594
 173,4.7059922,-7.3269801,6.5897423,-0.2527931,-1.5532492,-2.0138789,-1
 1.3247402,11.9451618,-9.9948938,-5.9727461,5.9760408,-2.3581088,-3.311
 1171,-1.520999,3.2311495,4.6198207,-5.3637493,5.2477793,-2.9362752,-2.
 8411369,-3.1731307,-1.262675,-0.5035554,-0.7916081,-1.4096147,-3.18954
 12,-6.1484092,-0.4177582,-1.4356469,-0.5308929,-1.3825896,-0.4977371,-
 1.4619744,-0.6283737,-1.838292,-0.2832829,4.1454957,-3.1831852,2.97742
 77,1.8741673,-0.9230967,1.0739482,-2.1518677,4.0929068,-6.0171653,-0.9
 978122,2.1068902,-0.8543846,1.8279049,-0.9527728,1.5336569,1.1136397,-
 1.9424353,0.871464,7.1289201,2.3114998,1.0720924,-2.1418411,-0.2631306
 ,0.7359961,2.1803439,2.9367533,1.8951402,-0.4442157,-0.907381,0.817067
 6,-2.76038,-1.0653873,-0.7713327,2.7857307,1.6270302,-1.6666902,-6.499
 8023,8.3830651,-6.5656828,0.3869155,0.7344135,2.0250886,6.847208,-6.92
 6413,3.6647317,3.277116,-3.2680275,1.6384019,4.1477105,0.5337622,-2.89
 57954,-5.6901766,7.5791005,-6.9574623,-0.8445862,1.6658221,1.0944902,-
 1.008949,0.0751232,-0.3988593,0.5767642,-1.222439,9.9133918,0.2287897,
 -0.8209617,0.3684246,-1.2619875,0.1551578,0.3401077,0.1780918,1.534576
 5,0.5503459,-8.1639245,0.1015941,-0.4446871,-3.3451888,0.6257175,-1.60
 30365,-1.3459377,-1.9024646,1.1101363,-0.4860892,-0.9961565,-0.5226644
 ,-2.8733699,0.6413256,-0.3110821,-2.4601974,-0.8535531,-1.7589476,1.23
 8976,1.316296,0.0248982,1.6569434,-0.1907081,0.2740064,0.9486977,1.148
 5248,2.166997,0.6207887,2.9897422,2.19389,0.4599016,0.6328567,1.448817
 8,1.9681524,2.8291945,8.1049301\HyperPolar=15.2502803,-18.3015748,7.57
 2529,12.4969414,-16.5716915,-16.8266047,4.2923816,11.8614956,9.3423395
 ,29.0615018\Quadrupole=0.6869215,1.321833,-2.0087545,0.1043909,1.71362
 23,-0.0639855\PG=C01 [X(C5H6)]\NImag=0\\0.80900470,0.18695422,0.631209
 47,0.31192299,0.07780812,0.30623640,-0.49012691,0.00901894,-0.20063385
 ,0.80663264,-0.02097780,-0.10029126,-0.00957943,-0.16669162,0.59271066
 ,-0.19983066,0.00500199,-0.17522003,0.30972874,-0.09239347,0.33210615,
 -0.04725153,-0.05911251,-0.03236065,-0.07041417,0.00795909,0.00782390,
 0.52345413,-0.05283953,-0.06866573,-0.02319270,-0.02798454,-0.16224171
 ,-0.01154463,0.13375512,0.49772900,-0.03252947,-0.02624624,0.00752608,
 0.00880560,0.00593032,-0.08283605,-0.06652263,0.06929883,0.61843937,-0
 .07586162,-0.02256741,0.00105168,-0.05703882,0.06523982,-0.03833286,-0
 .14460976,0.00785315,-0.02119343,0.65210203,0.01018974,-0.20968181,0.0
 0860016,0.06808876,-0.06995430,0.03552245,-0.01909664,-0.06435067,-0.0
 1030071,-0.28875777,0.74529389,0.00015930,-0.00732469,-0.07647117,-0.0
 3841163,0.03412787,-0.00148326,-0.02045225,0.00280199,-0.11150050,0.23
 233906,-0.15566651,0.30793601,-0.19692247,-0.14111925,-0.06645789,0.00
 051729,-0.02303571,-0.00391138,0.00108946,-0.00054898,-0.00804942,0.00
 514826,0.00533707,0.00184656,0.19084920,-0.14579602,-0.24481190,-0.065
 53328,0.00478578,0.00712288,0.00240326,-0.00144856,-0.00332229,-0.0001
 2414,-0.01768470,0.00131440,-0.00860067,0.16149980,0.24045638,-0.06631
 245,-0.06324382,-0.08262510,-0.00469042,-0.01112523,0.00790232,-0.0080
 3016,0.00030705,0.01377356,0.00248189,0.00258181,0.00217871,0.07345530
 ,0.07268598,0.06420769,0.00202843,0.02302286,-0.00599440,-0.19347983,0
 .13798462,-0.07214411,0.00654262,-0.00473457,0.00154039,-0.00130284,-0
 .00021350,-0.00759945,-0.00118146,-0.00052575,0.00182071,0.18686729,-0
 .00513670,0.00755270,-0.00234756,0.14531737,-0.24262182,0.07585572,0.0
 1484523,0.00144284,0.00728060,0.00082386,-0.00451599,0.00091707,0.0006
 6283,0.00033679,0.00017933,-0.15809429,0.23776887,-0.00522495,0.011345
 80,0.01020459,-0.07234280,0.07229802,-0.09004753,0.00100615,-0.0022449
 0,0.00419301,-0.00762849,0.00040989,0.01061856,0.00178570,-0.00039966,
 -0.00401572,0.08076972,-0.08257331,0.07120787,-0.00172295,-0.00057851,
 -0.00145195,0.00431452,0.00028056,-0.00492165,-0.21078173,-0.07692320,
 0.12401925,-0.01761393,-0.01156737,0.02010504,0.00059169,-0.00096631,-
 0.00075927,-0.00012190,-0.00034324,0.00021185,0.22343001,-0.00058715,-
 0.00396571,-0.00104238,-0.02750659,-0.00878531,0.01993628,-0.07771672,
 -0.09822252,0.06512915,0.00328916,-0.00035999,-0.00470542,0.00021107,0
 .00004280,-0.00283007,0.00037399,-0.00065298,0.00001292,0.08907497,0.1
 0256636,-0.00167653,-0.00103129,-0.00073750,-0.00103440,-0.00049995,0.
 00099649,0.12298301,0.06326953,-0.15768280,-0.01251211,-0.00672493,0.0
 1198742,0.00052117,-0.00062964,-0.00130464,0.00018986,0.00058490,-0.00
 016634,-0.13503077,-0.06832910,0.16517703,0.00301062,0.00376924,-0.003
 25704,0.00050072,-0.00111305,-0.00050096,-0.00350636,0.01935171,-0.006
 05329,-0.35570524,0.22988341,-0.14563622,0.00109832,-0.00010232,0.0007
 4189,0.00100986,0.00153195,0.00097783,0.00023028,0.00035915,0.00076360
 ,0.72108790,0.02922586,-0.01046053,0.01476491,-0.00420054,-0.00575578,
 -0.00184261,-0.00298975,0.00589187,-0.00140057,0.23368724,-0.38549076,
 0.12234885,-0.00074700,-0.00062375,-0.00035708,0.00178796,0.00150850,0
 .00079858,-0.00085549,0.00125697,-0.00075588,-0.12262885,0.84365544,-0
 .00395871,0.00237630,0.00751124,-0.00041576,-0.00033940,0.00139799,-0.
 00543637,0.00946396,0.00493860,-0.14573626,0.12050487,-0.14345032,0.00
 076167,-0.00004449,-0.00005417,0.00097020,0.00067371,-0.00063276,-0.00
 114046,0.00066399,-0.00001509,0.28507143,-0.07896207,0.28260000,0.0007
 2995,0.00078368,-0.00616565,0.00032841,0.00062027,0.00052514,-0.001002
 82,-0.00073036,0.00358334,0.01002363,0.03056280,-0.00029947,-0.0002337
 3,0.00044047,-0.00007165,-0.00049405,-0.00023380,0.00018008,-0.0006685
 5,0.00000085,-0.00006384,-0.07632214,-0.06239973,-0.01352655,0.0686838
 7,0.00067672,0.00214205,0.00063973,0.00024911,-0.00040125,0.00011017,0
 .00090892,0.00125103,0.00017813,-0.00851596,-0.02411139,-0.00323387,0.
 00010524,-0.00035123,0.00005761,0.00036740,0.00016446,0.00015064,0.000
 69634,-0.00002871,0.00030592,-0.05535969,-0.35861681,-0.01828511,0.060
 06833,0.38482228,-0.00616250,0.00068656,0.01034765,0.00053490,0.000291
 06,-0.00053372,0.00353744,-0.00061807,-0.00659345,0.00077610,0.0157747
 9,0.00885628,-0.00006235,0.00022040,-0.00014761,0.00016332,-0.00014171
 ,-0.00076795,0.00090695,-0.00030902,0.00046565,-0.01371992,-0.02170991
 ,-0.05104919,0.01801058,0.01939384,0.03647058,-0.00020115,0.00106375,0
 .00424921,-0.00056594,0.00003067,-0.00057248,0.00432885,0.00141362,-0.
 00427714,-0.01920540,-0.01059507,-0.01296115,-0.00019283,0.00080063,-0
 .00025645,0.00007580,0.00039152,0.00021112,0.00029575,-0.00016763,0.00
 027914,-0.29129097,-0.06983323,-0.11766017,-0.00149589,0.00018562,-0.0
 0302363,0.30908367,-0.00047156,0.00086213,-0.00050150,0.00046186,0.000
 40871,0.00023033,0.00048994,-0.00187795,0.00064964,0.02827321,0.011878
 01,0.01364429,-0.00030198,-0.00034293,-0.00012914,-0.00019731,-0.00030
 596,-0.00009813,0.00031202,-0.00016205,0.00000747,-0.07642561,-0.09261
 264,-0.03586062,-0.02886185,-0.00485678,-0.01377166,0.07645643,0.08718
 913,0.00429217,0.00024829,-0.00692039,-0.00058425,0.00002099,0.0003244
 5,-0.00425181,0.00109689,0.01094799,-0.01403753,-0.00525706,0.00136838
 ,-0.00022620,0.00040710,0.00016808,0.00022733,0.00018865,-0.00027470,-
 0.00135594,0.00046208,-0.00069868,-0.11747215,-0.03265647,-0.10158281,
 -0.00222507,0.00035349,0.00362087,0.13447976,0.03555106,0.09260016,-0.
 00268707,-0.00123501,-0.00090246,-0.00066791,-0.00029685,0.00213632,-0
 .05784870,0.00138757,0.00067679,0.00406368,-0.01383144,-0.02908980,-0.
 00076372,-0.00100302,0.00162062,0.00005608,0.00023526,0.00005378,0.002
 04680,0.01266891,0.02558088,-0.00011297,-0.00104649,0.00107096,0.00045
 133,0.00061798,-0.00096090,-0.00083190,0.00026486,0.00115369,0.0562943
 9,-0.00123778,-0.00388940,0.00038394,-0.00153854,-0.01019082,-0.033279
 49,0.00240588,-0.10763387,-0.11039502,-0.00164061,-0.00002139,0.005691
 09,-0.00206308,0.00017885,0.00187357,0.00022858,-0.00067742,0.00030016
 ,0.00087023,0.00831113,0.01380297,0.00073405,0.00124748,-0.00019115,-0
 .00025067,-0.00001365,0.00018372,0.00025369,-0.00017968,-0.00041501,0.
 00223824,0.11286877,-0.00067920,0.00037899,0.00014822,-0.00095614,0.00
 126925,0.00739318,0.00170337,-0.10863795,-0.30120581,0.00279195,-0.005
 44476,-0.01004012,0.00033683,-0.00038487,-0.00008311,0.00005643,-0.000
 61741,-0.00031904,-0.00058305,-0.00898843,-0.01802154,-0.00091519,-0.0
 0022775,0.00033650,0.00005308,0.00032945,-0.00066912,-0.00046820,0.000
 27826,0.00044664,-0.00133988,0.12204522,0.32201420\\0.00008797,0.00000
 470,0.00000083,0.00000369,-0.00004203,-0.00001788,-0.00005962,-0.00004
 014,0.00000274,-0.00011009,0.00007306,-0.00003629,0.00001047,0.0000271
 0,0.00002921,0.00001732,-0.00001011,0.00001014,-0.00000033,-0.00001634
 ,-0.00000034,0.00007073,-0.00003233,0.00002259,-0.00002275,0.00002178,
 -0.00001492,0.00001075,0.00001075,0.00001266,-0.00000815,0.00000356,-0
 .00000875\\\@


 YOU KNOW YOU'VE SPOKEN TOO LONG WHEN THE AUDIENCE STOPS LOOKING AT
 THEIR WATCHES AND STARTS SHAKING THEM.
 Job cpu time:       0 days  0 hours  0 minutes  1.4 seconds.
 Elapsed time:       0 days  0 hours  0 minutes  1.3 seconds.
 File lengths (MBytes):  RWF=      9 Int=      0 D2E=      0 Chk=      2 Scr=      1
 Normal termination of Gaussian 16 at Mon Jun  9 21:00:07 2025.
