 Entering Gaussian System, Link 0=g16
 Input=/home/gaussian/Documents/Summer_Internship/Acid_Base_adduct/Acid/BCl3/neutral/BCl3_sp.com
 Output=/home/gaussian/Documents/Summer_Internship/Acid_Base_adduct/Acid/BCl3/neutral/BCl3_sp.log
 Initial command:
 /usr/local/g16/l1.exe "/home/gaussian/tmp/Gau-78596.inp" -scrdir="/home/gaussian/tmp/"
 Entering Link 1 = /usr/local/g16/l1.exe PID=     78599.
  
 Copyright (c) 1988-2017, Gaussian, Inc.  All Rights Reserved.
  
 This is part of the Gaussian(R) 16 program.  It is based on
 the Gaussian(R) 09 system (copyright 2009, Gaussian, Inc.),
 the Gaussian(R) 03 system (copyright 2003, Gaussian, Inc.),
 the Gaussian(R) 98 system (copyright 1998, Gaussian, Inc.),
 the Gaussian(R) 94 system (copyright 1995, Gaussian, Inc.),
 the Gaussian 92(TM) system (copyright 1992, Gaussian, Inc.),
 the Gaussian 90(TM) system (copyright 1990, Gaussian, Inc.),
 the Gaussian 88(TM) system (copyright 1988, Gaussian, Inc.),
 the Gaussian 86(TM) system (copyright 1986, Carnegie Mellon
 University), and the Gaussian 82(TM) system (copyright 1983,
 Carnegie Mellon University). Gaussian is a federally registered
 trademark of Gaussian, Inc.
  
 This software contains proprietary and confidential information,
 including trade secrets, belonging to Gaussian, Inc.
  
 This software is provided under written license and may be
 used, copied, transmitted, or stored only in accord with that
 written license.
  
 The following legend is applicable only to US Government
 contracts under FAR:
  
                    RESTRICTED RIGHTS LEGEND
  
 Use, reproduction and disclosure by the US Government is
 subject to restrictions as set forth in subparagraphs (a)
 and (c) of the Commercial Computer Software - Restricted
 Rights clause in FAR 52.227-19.
  
 Gaussian, Inc.
 340 Quinnipiac St., Bldg. 40, Wallingford CT 06492
  
  
 ---------------------------------------------------------------
 Warning -- This program may not be used in any manner that
 competes with the business of Gaussian, Inc. or will provide
 assistance to any competitor of Gaussian, Inc.  The licensee
 of this program is prohibited from giving any competitor of
 Gaussian, Inc. access to this program.  By using this program,
 the user acknowledges that Gaussian, Inc. is engaged in the
 business of creating and licensing software in the field of
 computational chemistry and represents and warrants to the
 licensee that it is not a competitor of Gaussian, Inc. and that
 it will not use this program in any manner prohibited above.
 ---------------------------------------------------------------
  

 Cite this work as:
 Gaussian 16, Revision B.01,
 M. J. Frisch, G. W. Trucks, H. B. Schlegel, G. E. Scuseria, 
 M. A. Robb, J. R. Cheeseman, G. Scalmani, V. Barone, 
 G. A. Petersson, H. Nakatsuji, X. Li, M. Caricato, A. V. Marenich, 
 J. Bloino, B. G. Janesko, R. Gomperts, B. Mennucci, H. P. Hratchian, 
 J. V. Ortiz, A. F. Izmaylov, J. L. Sonnenberg, D. Williams-Young, 
 F. Ding, F. Lipparini, F. Egidi, J. Goings, B. Peng, A. Petrone, 
 T. Henderson, D. Ranasinghe, V. G. Zakrzewski, J. Gao, N. Rega, 
 G. Zheng, W. Liang, M. Hada, M. Ehara, K. Toyota, R. Fukuda, 
 J. Hasegawa, M. Ishida, T. Nakajima, Y. Honda, O. Kitao, H. Nakai, 
 T. Vreven, K. Throssell, J. A. Montgomery, Jr., J. E. Peralta, 
 F. Ogliaro, M. J. Bearpark, J. J. Heyd, E. N. Brothers, K. N. Kudin, 
 V. N. Staroverov, T. A. Keith, R. Kobayashi, J. Normand, 
 K. Raghavachari, A. P. Rendell, J. C. Burant, S. S. Iyengar, 
 J. Tomasi, M. Cossi, J. M. Millam, M. Klene, C. Adamo, R. Cammi, 
 J. W. Ochterski, R. L. Martin, K. Morokuma, O. Farkas, 
 J. B. Foresman, and D. J. Fox, Gaussian, Inc., Wallingford CT, 2016.
 
 ******************************************
 Gaussian 16:  EM64L-G16RevB.01 20-Dec-2017
                16-Jun-2025 
 ******************************************
 %chk=BCl3_sp.chk
 -------------------------------------
 # hf/3-21g pop=full geom=connectivity
 -------------------------------------
 1/38=1,57=2,172=1/1;
 2/12=2,17=6,18=5,40=1/2;
 3/5=5,11=9,25=1,30=1/1,2,3;
 4//1;
 5/5=2,38=5/2;
 6/7=3,28=1/1;
 99/5=1,9=1/99;
 -------
 BCl3 sp
 -------
 Symbolic Z-matrix:
 Charge =  0 Multiplicity = 1
 B                     0.        0.        0. 
 Cl                    0.        1.77134   0. 
 Cl                   -1.53402  -0.88567   0. 
 Cl                    1.53402  -0.88567   0. 
 
                          Input orientation:                          
 ---------------------------------------------------------------------
 Center     Atomic      Atomic             Coordinates (Angstroms)
 Number     Number       Type             X           Y           Z
 ---------------------------------------------------------------------
      1          5           0        0.000000    0.000000    0.000000
      2         17           0        0.000000    1.771336    0.000000
      3         17           0       -1.534022   -0.885668    0.000000
      4         17           0        1.534022   -0.885668    0.000000
 ---------------------------------------------------------------------
                    Distance matrix (angstroms):
                    1          2          3          4
     1  B    0.000000
     2  Cl   1.771336   0.000000
     3  Cl   1.771336   3.068044   0.000000
     4  Cl   1.771336   3.068044   3.068044   0.000000
 Stoichiometry    BCl3
 Framework group  D3H[O(B),3C2(Cl)]
 Deg. of freedom     1
 Full point group                 D3H     NOp  12
 Largest Abelian subgroup         C2V     NOp   4
 Largest concise Abelian subgroup C2      NOp   2
                         Standard orientation:                         
 ---------------------------------------------------------------------
 Center     Atomic      Atomic             Coordinates (Angstroms)
 Number     Number       Type             X           Y           Z
 ---------------------------------------------------------------------
      1          5           0        0.000000    0.000000    0.000000
      2         17           0        0.000000    1.771336    0.000000
      3         17           0        1.534022   -0.885668    0.000000
      4         17           0       -1.534022   -0.885668    0.000000
 ---------------------------------------------------------------------
 Rotational constants (GHZ):           3.0707373           3.0707373           1.5353686
 Standard basis: 3-21G (6D, 7F)
 There are    22 symmetry adapted cartesian basis functions of A1  symmetry.
 There are     3 symmetry adapted cartesian basis functions of A2  symmetry.
 There are    15 symmetry adapted cartesian basis functions of B1  symmetry.
 There are     8 symmetry adapted cartesian basis functions of B2  symmetry.
 There are    22 symmetry adapted basis functions of A1  symmetry.
 There are     3 symmetry adapted basis functions of A2  symmetry.
 There are    15 symmetry adapted basis functions of B1  symmetry.
 There are     8 symmetry adapted basis functions of B2  symmetry.
    48 basis functions,    96 primitive gaussians,    48 cartesian basis functions
    28 alpha electrons       28 beta electrons
       nuclear repulsion energy       225.7203339571 Hartrees.
 NAtoms=    4 NActive=    4 NUniq=    2 SFac= 4.00D+00 NAtFMM=   60 NAOKFM=F Big=F
 Integral buffers will be    131072 words long.
 Raffenetti 1 integral format.
 Two-electron integral symmetry is turned on.
 One-electron integrals computed using PRISM.
 NBasis=    48 RedAO= T EigKep=  1.85D-02  NBF=    22     3    15     8
 NBsUse=    48 1.00D-06 EigRej= -1.00D+00 NBFU=    22     3    15     8
 ExpMin= 1.24D-01 ExpMax= 1.38D+03 ExpMxC= 1.38D+03 IAcc=3 IRadAn=         5 AccDes= 0.00D+00
 Harris functional with IExCor=  205 and IRadAn=       5 diagonalized for initial guess.
 HarFok:  IExCor=  205 AccDes= 0.00D+00 IRadAn=         5 IDoV= 1 UseB2=F ITyADJ=14
 ICtDFT=  3500011 ScaDFX=  1.000000  1.000000  1.000000  1.000000
 FoFCou: FMM=F IPFlag=           0 FMFlag=      100000 FMFlg1=           0
         NFxFlg=           0 DoJE=T BraDBF=F KetDBF=T FulRan=T
         wScrn=  0.000000 ICntrl=       500 IOpCl=  0 I1Cent=   200000004 NGrid=           0
         NMat0=    1 NMatS0=      1 NMatT0=    0 NMatD0=    1 NMtDS0=    0 NMtDT0=    0
 Petite list used in FoFCou.
 Initial guess orbital symmetries:
       Occupied  (E') (E') (A1') (E') (E') (A1') (E') (E') (A1')
                 (A2') (A2") (E") (E") (E') (E') (A1') (A1') (E')
                 (E') (A1') (E') (E') (A2") (E') (E') (E") (E")
                 (A2')
       Virtual   (A2") (A1') (E') (E') (E') (E') (A2") (A1') (E')
                 (E') (A1') (E") (E") (E') (E') (A2") (A2') (A1')
                 (E') (E')
 The electronic state of the initial guess is 1-A1'.
 Keep R1 ints in memory in symmetry-blocked form, NReq=1505651.
 Requested convergence on RMS density matrix=1.00D-08 within 128 cycles.
 Requested convergence on MAX density matrix=1.00D-06.
 Requested convergence on             energy=1.00D-06.
 No special actions if energy rises.
 SCF Done:  E(RHF) =  -1396.53311295     A.U. after   10 cycles
            NFock= 10  Conv=0.22D-08     -V/T= 2.0007

 **********************************************************************

            Population analysis using the SCF Density.

 **********************************************************************

 Orbital symmetries:
       Occupied  (E') (E') (A1') (E') (E') (A1') (E') (E') (A1')
                 (A2") (E") (E") (A2') (E') (E') (A1') (A1') (E')
                 (E') (A1') (E') (E') (A2") (E') (E') (E") (E")
                 (A2')
       Virtual   (A2") (A1') (E') (E') (E') (E') (A2") (A1') (E')
                 (E') (A1') (E") (E") (E') (E') (A2") (A2') (A1')
                 (E') (E')
 The electronic state is 1-A1'.
 Alpha  occ. eigenvalues -- -104.14847-104.14847-104.14809 -10.54515 -10.54515
 Alpha  occ. eigenvalues --  -10.54391  -8.00778  -8.00778  -8.00759  -8.00400
 Alpha  occ. eigenvalues --   -8.00396  -8.00396  -8.00374  -8.00353  -8.00353
 Alpha  occ. eigenvalues --   -7.78245  -1.20607  -1.14413  -1.14413  -0.71195
 Alpha  occ. eigenvalues --   -0.62321  -0.62321  -0.57346  -0.50373  -0.50373
 Alpha  occ. eigenvalues --   -0.49731  -0.49731  -0.47719
 Alpha virt. eigenvalues --    0.04893   0.16213   0.26130   0.26130   0.58028
 Alpha virt. eigenvalues --    0.58028   0.58593   0.64828   0.74448   0.74448
 Alpha virt. eigenvalues --    0.76774   0.79368   0.79368   0.80952   0.80952
 Alpha virt. eigenvalues --    0.83261   0.88623   0.95225   1.04806   1.04806
     Molecular Orbital Coefficients:
                           1         2         3         4         5
                        (E')--O   (E')--O  (A1')--O   (E')--O   (E')--O
     Eigenvalues --  -104.14847-104.14847-104.14809 -10.54515 -10.54515
   1 1   B  1S         -0.00000   0.00000   0.00003   0.00000   0.00000
   2        2S         -0.00000   0.00000   0.00139   0.00000   0.00000
   3        2PX         0.00000   0.00049   0.00000   0.00000  -0.00266
   4        2PY         0.00049   0.00000   0.00000  -0.00266   0.00000
   5        2PZ         0.00000   0.00000   0.00000   0.00000   0.00000
   6        3S          0.00000   0.00000  -0.00936  -0.00000   0.00000
   7        3PX         0.00000  -0.00814   0.00000   0.00000   0.04684
   8        3PY        -0.00814   0.00000  -0.00000   0.04684   0.00000
   9        3PZ         0.00000   0.00000   0.00000   0.00000   0.00000
  10 2   Cl 1S          0.80496   0.00000   0.56921  -0.24970   0.00000
  11        2S          0.04345   0.00000   0.03061   0.80210   0.00000
  12        2PX         0.00000  -0.00001   0.00000   0.00000   0.00001
  13        2PY        -0.00025   0.00000  -0.00009  -0.00790   0.00000
  14        2PZ         0.00000   0.00000   0.00000   0.00000   0.00000
  15        3S         -0.01686   0.00000  -0.01088   0.12342   0.00000
  16        3PX         0.00000  -0.00001   0.00000   0.00000   0.00013
  17        3PY         0.00100   0.00000   0.00026  -0.00719   0.00000
  18        3PZ         0.00000   0.00000   0.00000   0.00000   0.00000
  19        4S          0.01473   0.00000   0.00800  -0.08566   0.00000
  20        4PX         0.00000   0.00133   0.00000   0.00000  -0.00774
  21        4PY        -0.00465   0.00000  -0.00214   0.02705   0.00000
  22        4PZ         0.00000   0.00000   0.00000   0.00000   0.00000
  23 3   Cl 1S         -0.40248   0.69711   0.56921   0.12485  -0.21625
  24        2S         -0.02172   0.03763   0.03061  -0.40105   0.69464
  25        2PX         0.00010  -0.00019  -0.00008   0.00343  -0.00592
  26        2PY        -0.00007   0.00010   0.00005  -0.00197   0.00343
  27        2PZ         0.00000   0.00000   0.00000   0.00000   0.00000
  28        3S          0.00843  -0.01460  -0.01088  -0.06171   0.10688
  29        3PX        -0.00044   0.00075   0.00023   0.00317  -0.00536
  30        3PY         0.00024  -0.00044  -0.00013  -0.00170   0.00317
  31        3PZ         0.00000   0.00000   0.00000   0.00000   0.00000
  32        4S         -0.00737   0.01276   0.00800   0.04283  -0.07418
  33        4PX         0.00259  -0.00316  -0.00185  -0.01507   0.01835
  34        4PY        -0.00017   0.00259   0.00107   0.00095  -0.01507
  35        4PZ         0.00000   0.00000   0.00000   0.00000   0.00000
  36 4   Cl 1S         -0.40248  -0.69711   0.56921   0.12485   0.21625
  37        2S         -0.02172  -0.03763   0.03061  -0.40105  -0.69464
  38        2PX        -0.00010  -0.00019   0.00008  -0.00343  -0.00592
  39        2PY        -0.00007  -0.00010   0.00005  -0.00197  -0.00343
  40        2PZ         0.00000   0.00000   0.00000   0.00000   0.00000
  41        3S          0.00843   0.01460  -0.01088  -0.06171  -0.10688
  42        3PX         0.00044   0.00075  -0.00023  -0.00317  -0.00536
  43        3PY         0.00024   0.00044  -0.00013  -0.00170  -0.00317
  44        3PZ         0.00000   0.00000   0.00000   0.00000   0.00000
  45        4S         -0.00737  -0.01276   0.00800   0.04283   0.07418
  46        4PX        -0.00259  -0.00316   0.00185   0.01507   0.01835
  47        4PY        -0.00017  -0.00259   0.00107   0.00095   0.01507
  48        4PZ         0.00000   0.00000   0.00000   0.00000   0.00000
                           6         7         8         9        10
                       (A1')--O   (E')--O   (E')--O  (A1')--O  (A2")--O
     Eigenvalues --   -10.54391  -8.00778  -8.00778  -8.00759  -8.00400
   1 1   B  1S         -0.00061   0.00000  -0.00000   0.00118   0.00000
   2        2S         -0.00814   0.00000  -0.00000   0.00281   0.00000
   3        2PX         0.00000   0.00334   0.00000   0.00000   0.00000
   4        2PY        -0.00000   0.00000   0.00334   0.00000   0.00000
   5        2PZ         0.00000   0.00000   0.00000   0.00000  -0.00175
   6        3S          0.05560   0.00000   0.00000  -0.02389   0.00000
   7        3PX         0.00000  -0.01494   0.00000   0.00000   0.00000
   8        3PY         0.00000   0.00000  -0.01494  -0.00000   0.00000
   9        3PZ         0.00000   0.00000   0.00000   0.00000   0.01005
  10 2   Cl 1S         -0.17667   0.00000  -0.00308  -0.00209   0.00000
  11        2S          0.56780   0.00000   0.01071   0.00715   0.00000
  12        2PX         0.00000   0.00402   0.00000   0.00000   0.00000
  13        2PY        -0.00591   0.00000   0.79447   0.56200   0.00000
  14        2PZ         0.00000   0.00000   0.00000   0.00000   0.56243
  15        3S          0.08176   0.00000  -0.00755  -0.00244   0.00000
  16        3PX         0.00000   0.00069   0.00000   0.00000   0.00000
  17        3PY        -0.00274   0.00000   0.06845   0.04713   0.00000
  18        3PZ         0.00000   0.00000   0.00000   0.00000   0.04606
  19        4S         -0.04755   0.00000   0.01772   0.00748   0.00000
  20        4PX         0.00000   0.00063   0.00000   0.00000   0.00000
  21        4PY         0.01305   0.00000  -0.02971  -0.01810   0.00000
  22        4PZ         0.00000   0.00000   0.00000   0.00000  -0.01609
  23 3   Cl 1S         -0.17667  -0.00266   0.00154  -0.00209   0.00000
  24        2S          0.56780   0.00928  -0.00536   0.00715   0.00000
  25        2PX        -0.00511   0.59686  -0.34228   0.48671   0.00000
  26        2PY         0.00295  -0.34228   0.20163  -0.28100   0.00000
  27        2PZ         0.00000   0.00000   0.00000   0.00000   0.56243
  28        3S          0.08176  -0.00654   0.00377  -0.00244   0.00000
  29        3PX        -0.00237   0.05151  -0.02934   0.04081   0.00000
  30        3PY         0.00137  -0.02934   0.01763  -0.02356   0.00000
  31        3PZ         0.00000   0.00000   0.00000   0.00000   0.04606
  32        4S         -0.04755   0.01535  -0.00886   0.00748   0.00000
  33        4PX         0.01131  -0.02213   0.01314  -0.01567   0.00000
  34        4PY        -0.00653   0.01314  -0.00696   0.00905   0.00000
  35        4PZ         0.00000   0.00000   0.00000   0.00000  -0.01609
  36 4   Cl 1S         -0.17667   0.00266   0.00154  -0.00209   0.00000
  37        2S          0.56780  -0.00928  -0.00536   0.00715   0.00000
  38        2PX         0.00511   0.59686   0.34228  -0.48671   0.00000
  39        2PY         0.00295   0.34228   0.20163  -0.28100   0.00000
  40        2PZ         0.00000   0.00000   0.00000   0.00000   0.56243
  41        3S          0.08176   0.00654   0.00377  -0.00244   0.00000
  42        3PX         0.00237   0.05151   0.02934  -0.04081   0.00000
  43        3PY         0.00137   0.02934   0.01763  -0.02356   0.00000
  44        3PZ         0.00000   0.00000   0.00000   0.00000   0.04606
  45        4S         -0.04755  -0.01535  -0.00886   0.00748   0.00000
  46        4PX        -0.01131  -0.02213  -0.01314   0.01567   0.00000
  47        4PY        -0.00653  -0.01314  -0.00696   0.00905   0.00000
  48        4PZ         0.00000   0.00000   0.00000   0.00000  -0.01609
                          11        12        13        14        15
                        (E")--O   (E")--O  (A2')--O   (E')--O   (E')--O
     Eigenvalues --    -8.00396  -8.00396  -8.00374  -8.00353  -8.00353
   1 1   B  1S          0.00000   0.00000   0.00000   0.00000   0.00000
   2        2S          0.00000   0.00000   0.00000   0.00000   0.00000
   3        2PX         0.00000   0.00000   0.00000   0.00000  -0.00165
   4        2PY         0.00000   0.00000   0.00000  -0.00165   0.00000
   5        2PZ         0.00000   0.00000   0.00000   0.00000   0.00000
   6        3S          0.00000   0.00000   0.00000  -0.00000   0.00000
   7        3PX         0.00000   0.00000  -0.00000   0.00000   0.01355
   8        3PY         0.00000   0.00000   0.00000   0.01355   0.00000
   9        3PZ        -0.00000   0.00000   0.00000   0.00000   0.00000
  10 2   Cl 1S          0.00000   0.00000   0.00000   0.00001   0.00000
  11        2S          0.00000   0.00000   0.00000   0.00002   0.00000
  12        2PX         0.00000   0.00000   0.56236   0.00000   0.79554
  13        2PY         0.00000   0.00000   0.00000  -0.00413   0.00000
  14        2PZ         0.79545   0.00000   0.00000   0.00000   0.00000
  15        3S          0.00000   0.00000   0.00000   0.00021   0.00000
  16        3PX         0.00000   0.00000   0.04654   0.00000   0.06450
  17        3PY         0.00000   0.00000   0.00000   0.00007   0.00000
  18        3PZ         0.06476   0.00000   0.00000   0.00000   0.00000
  19        4S          0.00000   0.00000   0.00000  -0.00671   0.00000
  20        4PX         0.00000   0.00000  -0.01610   0.00000  -0.02152
  21        4PY         0.00000   0.00000   0.00000   0.00241   0.00000
  22        4PZ        -0.01956   0.00000   0.00000   0.00000   0.00000
  23 3   Cl 1S          0.00000   0.00000  -0.00000  -0.00000   0.00000
  24        2S          0.00000   0.00000   0.00000  -0.00001   0.00002
  25        2PX         0.00000   0.00000  -0.28118   0.34627   0.19579
  26        2PY         0.00000   0.00000  -0.48702   0.59562   0.34627
  27        2PZ        -0.39773   0.68888   0.00000   0.00000   0.00000
  28        3S          0.00000   0.00000  -0.00000  -0.00011   0.00018
  29        3PX         0.00000   0.00000  -0.02327   0.02790   0.01618
  30        3PY         0.00000   0.00000  -0.04031   0.04839   0.02790
  31        3PZ        -0.03238   0.05608   0.00000   0.00000   0.00000
  32        4S          0.00000   0.00000   0.00000   0.00336  -0.00581
  33        4PX         0.00000   0.00000   0.00805  -0.01036  -0.00357
  34        4PY         0.00000   0.00000   0.01394  -0.01554  -0.01036
  35        4PZ         0.00978  -0.01694   0.00000   0.00000   0.00000
  36 4   Cl 1S          0.00000   0.00000   0.00000  -0.00000  -0.00000
  37        2S          0.00000   0.00000  -0.00000  -0.00001  -0.00002
  38        2PX         0.00000   0.00000  -0.28118  -0.34627   0.19579
  39        2PY         0.00000   0.00000   0.48702   0.59562  -0.34627
  40        2PZ        -0.39773  -0.68888   0.00000   0.00000   0.00000
  41        3S          0.00000   0.00000   0.00000  -0.00011  -0.00018
  42        3PX         0.00000   0.00000  -0.02327  -0.02790   0.01618
  43        3PY         0.00000   0.00000   0.04031   0.04839  -0.02790
  44        3PZ        -0.03238  -0.05608   0.00000   0.00000   0.00000
  45        4S          0.00000   0.00000  -0.00000   0.00336   0.00581
  46        4PX         0.00000   0.00000   0.00805   0.01036  -0.00357
  47        4PY         0.00000   0.00000  -0.01394  -0.01554   0.01036
  48        4PZ         0.00978   0.01694   0.00000   0.00000   0.00000
                          16        17        18        19        20
                       (A1')--O  (A1')--O   (E')--O   (E')--O  (A1')--O
     Eigenvalues --    -7.78245  -1.20607  -1.14413  -1.14413  -0.71195
   1 1   B  1S          0.98830  -0.10383   0.00000  -0.00000  -0.15199
   2        2S          0.08876   0.15157   0.00000   0.00000   0.22619
   3        2PX         0.00000   0.00000   0.14653   0.00000   0.00000
   4        2PY         0.00000  -0.00000   0.00000   0.14653  -0.00000
   5        2PZ         0.00000   0.00000   0.00000   0.00000   0.00000
   6        3S         -0.05287   0.08537   0.00000   0.00000   0.39819
   7        3PX         0.00000   0.00000  -0.02927   0.00000   0.00000
   8        3PY         0.00000   0.00000   0.00000  -0.02927   0.00000
   9        3PZ         0.00000   0.00000   0.00000   0.00000   0.00000
  10 2   Cl 1S         -0.00013   0.04126   0.00000   0.06405  -0.02105
  11        2S          0.00074  -0.24172   0.00000  -0.37635   0.12679
  12        2PX         0.00000   0.00000  -0.00723   0.00000   0.00000
  13        2PY        -0.00160   0.03496   0.00000   0.03346   0.11946
  14        2PZ         0.00000   0.00000   0.00000   0.00000   0.00000
  15        3S         -0.00350   0.30946   0.00000   0.47135  -0.15091
  16        3PX         0.00000   0.00000   0.01525   0.00000   0.00000
  17        3PY         0.00146  -0.07208   0.00000  -0.06682  -0.25700
  18        3PZ         0.00000   0.00000   0.00000   0.00000   0.00000
  19        4S          0.01285   0.22976   0.00000   0.42406  -0.25137
  20        4PX         0.00000   0.00000   0.00956   0.00000   0.00000
  21        4PY        -0.00484  -0.03104   0.00000  -0.05712  -0.11542
  22        4PZ         0.00000   0.00000   0.00000   0.00000   0.00000
  23 3   Cl 1S         -0.00013   0.04126   0.05547  -0.03203  -0.02105
  24        2S          0.00074  -0.24172  -0.32593   0.18818   0.12679
  25        2PX        -0.00139   0.03028   0.02329  -0.01762   0.10345
  26        2PY         0.00080  -0.01748  -0.01762   0.00295  -0.05973
  27        2PZ         0.00000   0.00000   0.00000   0.00000   0.00000
  28        3S         -0.00350   0.30946   0.40820  -0.23568  -0.15091
  29        3PX         0.00126  -0.06242  -0.04631   0.03554  -0.22257
  30        3PY        -0.00073   0.03604   0.03554  -0.00527   0.12850
  31        3PZ         0.00000   0.00000   0.00000   0.00000   0.00000
  32        4S          0.01285   0.22976   0.36724  -0.21203  -0.25137
  33        4PX        -0.00419  -0.02688  -0.04045   0.02887  -0.09995
  34        4PY         0.00242   0.01552   0.02887  -0.00711   0.05771
  35        4PZ         0.00000   0.00000   0.00000   0.00000   0.00000
  36 4   Cl 1S         -0.00013   0.04126  -0.05547  -0.03203  -0.02105
  37        2S          0.00074  -0.24172   0.32593   0.18818   0.12679
  38        2PX         0.00139  -0.03028   0.02329   0.01762  -0.10345
  39        2PY         0.00080  -0.01748   0.01762   0.00295  -0.05973
  40        2PZ         0.00000   0.00000   0.00000   0.00000   0.00000
  41        3S         -0.00350   0.30946  -0.40820  -0.23568  -0.15091
  42        3PX        -0.00126   0.06242  -0.04631  -0.03554   0.22257
  43        3PY        -0.00073   0.03604  -0.03554  -0.00527   0.12850
  44        3PZ         0.00000   0.00000   0.00000   0.00000   0.00000
  45        4S          0.01285   0.22976  -0.36724  -0.21203  -0.25137
  46        4PX         0.00419   0.02688  -0.04045  -0.02887   0.09995
  47        4PY         0.00242   0.01552  -0.02887  -0.00711   0.05771
  48        4PZ         0.00000   0.00000   0.00000   0.00000   0.00000
                          21        22        23        24        25
                        (E')--O   (E')--O  (A2")--O   (E')--O   (E')--O
     Eigenvalues --    -0.62321  -0.62321  -0.57346  -0.50373  -0.50373
   1 1   B  1S          0.00000   0.00000   0.00000   0.00000   0.00000
   2        2S          0.00000   0.00000   0.00000  -0.00000   0.00000
   3        2PX         0.00000   0.30570   0.00000   0.00000  -0.13604
   4        2PY        -0.30570   0.00000   0.00000  -0.13604   0.00000
   5        2PZ         0.00000   0.00000   0.18800   0.00000   0.00000
   6        3S         -0.00000   0.00000   0.00000  -0.00000   0.00000
   7        3PX         0.00000   0.21138   0.00000   0.00000   0.11615
   8        3PY        -0.21138   0.00000   0.00000   0.11615   0.00000
   9        3PZ         0.00000   0.00000   0.16645   0.00000   0.00000
  10 2   Cl 1S          0.01615   0.00000   0.00000   0.00226   0.00000
  11        2S         -0.09840   0.00000   0.00000  -0.01351   0.00000
  12        2PX         0.00000  -0.11028   0.00000   0.00000  -0.19645
  13        2PY        -0.16645   0.00000   0.00000  -0.12696   0.00000
  14        2PZ         0.00000   0.00000  -0.14446   0.00000   0.00000
  15        3S          0.10569   0.00000   0.00000   0.03443   0.00000
  16        3PX         0.00000   0.24258   0.00000   0.00000   0.43083
  17        3PY         0.35890   0.00000   0.00000   0.27658   0.00000
  18        3PZ         0.00000   0.00000   0.31561   0.00000   0.00000
  19        4S          0.26869   0.00000   0.00000  -0.07261   0.00000
  20        4PX         0.00000   0.13943   0.00000   0.00000   0.33921
  21        4PY         0.18023   0.00000   0.00000   0.25819   0.00000
  22        4PZ         0.00000   0.00000   0.22302   0.00000   0.00000
  23 3   Cl 1S         -0.00807  -0.01398   0.00000  -0.00113   0.00196
  24        2S          0.04920   0.08522   0.00000   0.00675  -0.01170
  25        2PX         0.11983   0.09727   0.00000  -0.03009  -0.14433
  26        2PY         0.04110  -0.11983   0.00000  -0.17907  -0.03009
  27        2PZ         0.00000   0.00000  -0.14446   0.00000   0.00000
  28        3S         -0.05284  -0.09153   0.00000  -0.01722   0.02982
  29        3PX        -0.26045  -0.20853   0.00000   0.06679   0.31514
  30        3PY        -0.09221   0.26045   0.00000   0.39227   0.06679
  31        3PZ         0.00000   0.00000   0.31561   0.00000   0.00000
  32        4S         -0.13435  -0.23269   0.00000   0.03631  -0.06289
  33        4PX        -0.13842  -0.10032   0.00000   0.03508   0.27844
  34        4PY        -0.05952   0.13842   0.00000   0.31895   0.03508
  35        4PZ         0.00000   0.00000   0.22302   0.00000   0.00000
  36 4   Cl 1S         -0.00807   0.01398   0.00000  -0.00113  -0.00196
  37        2S          0.04920  -0.08522   0.00000   0.00675   0.01170
  38        2PX        -0.11983   0.09727   0.00000   0.03009  -0.14433
  39        2PY         0.04110   0.11983   0.00000  -0.17907   0.03009
  40        2PZ         0.00000   0.00000  -0.14446   0.00000   0.00000
  41        3S         -0.05284   0.09153   0.00000  -0.01722  -0.02982
  42        3PX         0.26045  -0.20853   0.00000  -0.06679   0.31514
  43        3PY        -0.09221  -0.26045   0.00000   0.39227  -0.06679
  44        3PZ         0.00000   0.00000   0.31561   0.00000   0.00000
  45        4S         -0.13435   0.23269   0.00000   0.03631   0.06289
  46        4PX         0.13842  -0.10032   0.00000  -0.03508   0.27844
  47        4PY        -0.05952  -0.13842   0.00000   0.31895  -0.03508
  48        4PZ         0.00000   0.00000   0.22302   0.00000   0.00000
                          26        27        28        29        30
                        (E")--O   (E")--O  (A2')--O  (A2")--V  (A1')--V
     Eigenvalues --    -0.49731  -0.49731  -0.47719   0.04893   0.16213
   1 1   B  1S          0.00000   0.00000   0.00000   0.00000  -0.20193
   2        2S          0.00000   0.00000   0.00000   0.00000   0.12912
   3        2PX         0.00000   0.00000  -0.00000   0.00000   0.00000
   4        2PY         0.00000   0.00000   0.00000   0.00000  -0.00000
   5        2PZ         0.00000   0.00000   0.00000   0.46919   0.00000
   6        3S          0.00000   0.00000   0.00000   0.00000   2.47729
   7        3PX         0.00000   0.00000   0.00000   0.00000   0.00000
   8        3PY         0.00000   0.00000   0.00000   0.00000   0.00000
   9        3PZ         0.00000   0.00000   0.00000   0.84604   0.00000
  10 2   Cl 1S          0.00000   0.00000   0.00000   0.00000  -0.01824
  11        2S          0.00000   0.00000   0.00000   0.00000   0.11574
  12        2PX         0.00000   0.00000  -0.17138   0.00000   0.00000
  13        2PY         0.00000   0.00000   0.00000   0.00000  -0.10504
  14        2PZ         0.00000  -0.23195   0.00000   0.08565   0.00000
  15        3S          0.00000   0.00000   0.00000   0.00000  -0.11268
  16        3PX         0.00000   0.00000   0.37786   0.00000   0.00000
  17        3PY         0.00000   0.00000   0.00000   0.00000   0.22207
  18        3PZ         0.00000   0.50438   0.00000  -0.18615   0.00000
  19        4S          0.00000   0.00000   0.00000   0.00000  -0.69174
  20        4PX         0.00000   0.00000   0.31074   0.00000   0.00000
  21        4PY         0.00000   0.00000   0.00000   0.00000   0.72043
  22        4PZ         0.00000   0.43525   0.00000  -0.33482   0.00000
  23 3   Cl 1S          0.00000   0.00000   0.00000   0.00000  -0.01824
  24        2S          0.00000   0.00000  -0.00000   0.00000   0.11574
  25        2PX         0.00000   0.00000   0.08569   0.00000  -0.09096
  26        2PY         0.00000   0.00000   0.14842   0.00000   0.05252
  27        2PZ        -0.20087   0.11597   0.00000   0.08565   0.00000
  28        3S          0.00000   0.00000   0.00000   0.00000  -0.11268
  29        3PX         0.00000   0.00000  -0.18893   0.00000   0.19232
  30        3PY         0.00000   0.00000  -0.32723   0.00000  -0.11104
  31        3PZ         0.43681  -0.25219   0.00000  -0.18615   0.00000
  32        4S          0.00000   0.00000  -0.00000   0.00000  -0.69174
  33        4PX         0.00000   0.00000  -0.15537   0.00000   0.62391
  34        4PY         0.00000   0.00000  -0.26911   0.00000  -0.36022
  35        4PZ         0.37694  -0.21763   0.00000  -0.33482   0.00000
  36 4   Cl 1S          0.00000   0.00000  -0.00000   0.00000  -0.01824
  37        2S          0.00000   0.00000   0.00000   0.00000   0.11574
  38        2PX         0.00000   0.00000   0.08569   0.00000   0.09096
  39        2PY         0.00000   0.00000  -0.14842   0.00000   0.05252
  40        2PZ         0.20087   0.11597   0.00000   0.08565   0.00000
  41        3S          0.00000   0.00000  -0.00000   0.00000  -0.11268
  42        3PX         0.00000   0.00000  -0.18893   0.00000  -0.19232
  43        3PY         0.00000   0.00000   0.32723   0.00000  -0.11104
  44        3PZ        -0.43681  -0.25219   0.00000  -0.18615   0.00000
  45        4S          0.00000   0.00000   0.00000   0.00000  -0.69174
  46        4PX         0.00000   0.00000  -0.15537   0.00000  -0.62391
  47        4PY         0.00000   0.00000   0.26911   0.00000  -0.36022
  48        4PZ        -0.37694  -0.21763   0.00000  -0.33482   0.00000
                          31        32        33        34        35
                        (E')--V   (E')--V   (E')--V   (E')--V  (A2")--V
     Eigenvalues --     0.26130   0.26130   0.58028   0.58028   0.58593
   1 1   B  1S          0.00000   0.00000   0.00000   0.00000   0.00000
   2        2S          0.00000  -0.00000  -0.00000   0.00000   0.00000
   3        2PX         0.51461   0.00000   0.00000  -1.05373   0.00000
   4        2PY         0.00000   0.51461  -1.05373   0.00000   0.00000
   5        2PZ         0.00000   0.00000   0.00000   0.00000  -1.06192
   6        3S          0.00000  -0.00000   0.00000   0.00000   0.00000
   7        3PX         2.27477   0.00000   0.00000   1.84505   0.00000
   8        3PY         0.00000   2.27477   1.84505   0.00000   0.00000
   9        3PZ         0.00000   0.00000   0.00000   0.00000   1.12177
  10 2   Cl 1S          0.00000  -0.02336  -0.01090   0.00000   0.00000
  11        2S          0.00000   0.15114   0.06792   0.00000   0.00000
  12        2PX         0.06154   0.00000   0.00000   0.09013   0.00000
  13        2PY         0.00000  -0.08725   0.05129   0.00000   0.00000
  14        2PZ         0.00000   0.00000   0.00000   0.00000   0.06320
  15        3S          0.00000  -0.08822  -0.28326   0.00000   0.00000
  16        3PX        -0.12449   0.00000   0.00000  -0.27720   0.00000
  17        3PY         0.00000   0.16216  -0.09500   0.00000   0.00000
  18        3PZ         0.00000   0.00000   0.00000   0.00000  -0.20481
  19        4S          0.00000  -1.51517  -0.56768   0.00000   0.00000
  20        4PX        -0.54252   0.00000   0.00000  -0.15266   0.00000
  21        4PY         0.00000   1.15078   0.18665   0.00000   0.00000
  22        4PZ         0.00000   0.00000   0.00000   0.00000  -0.03204
  23 3   Cl 1S         -0.02023   0.01168   0.00545  -0.00944   0.00000
  24        2S          0.13089  -0.07557  -0.03396   0.05882   0.00000
  25        2PX        -0.05005   0.06443   0.01682   0.06100   0.00000
  26        2PY         0.06443   0.02435   0.08042   0.01682   0.00000
  27        2PZ         0.00000   0.00000   0.00000   0.00000   0.06320
  28        3S         -0.07640   0.04411   0.14163  -0.24531   0.00000
  29        3PX         0.09050  -0.12413  -0.07890  -0.14055   0.00000
  30        3PY        -0.12413  -0.05283  -0.23165  -0.07890   0.00000
  31        3PZ         0.00000   0.00000   0.00000   0.00000  -0.20481
  32        4S         -1.31218   0.75758   0.28384  -0.49162   0.00000
  33        4PX         0.72746  -0.73322  -0.14693   0.10183   0.00000
  34        4PY        -0.73322  -0.11919  -0.06783  -0.14693   0.00000
  35        4PZ         0.00000   0.00000   0.00000   0.00000  -0.03204
  36 4   Cl 1S          0.02023   0.01168   0.00545   0.00944   0.00000
  37        2S         -0.13089  -0.07557  -0.03396  -0.05882   0.00000
  38        2PX        -0.05005  -0.06443  -0.01682   0.06100   0.00000
  39        2PY        -0.06443   0.02435   0.08042  -0.01682   0.00000
  40        2PZ         0.00000   0.00000   0.00000   0.00000   0.06320
  41        3S          0.07640   0.04411   0.14163   0.24531   0.00000
  42        3PX         0.09050   0.12413   0.07890  -0.14055   0.00000
  43        3PY         0.12413  -0.05283  -0.23165   0.07890   0.00000
  44        3PZ         0.00000   0.00000   0.00000   0.00000  -0.20481
  45        4S          1.31218   0.75758   0.28384   0.49162   0.00000
  46        4PX         0.72746   0.73322   0.14693   0.10183   0.00000
  47        4PY         0.73322  -0.11919  -0.06783   0.14693   0.00000
  48        4PZ         0.00000   0.00000   0.00000   0.00000  -0.03204
                          36        37        38        39        40
                       (A1')--V   (E')--V   (E')--V  (A1')--V   (E")--V
     Eigenvalues --     0.64828   0.74448   0.74448   0.76774   0.79368
   1 1   B  1S          0.06346   0.00000  -0.00000   0.03812   0.00000
   2        2S         -0.95827   0.00000  -0.00000   0.23902   0.00000
   3        2PX         0.00000  -0.06582   0.00000   0.00000   0.00000
   4        2PY        -0.00000   0.00000  -0.06582  -0.00000   0.00000
   5        2PZ         0.00000   0.00000   0.00000   0.00000   0.00000
   6        3S         -0.10587   0.00000  -0.00000   1.21859   0.00000
   7        3PX         0.00000  -0.09208   0.00000   0.00000   0.00000
   8        3PY         0.00000   0.00000  -0.09208   0.00000   0.00000
   9        3PZ         0.00000   0.00000   0.00000   0.00000  -0.00000
  10 2   Cl 1S         -0.03041   0.00000  -0.02853  -0.00189   0.00000
  11        2S          0.18476   0.00000   0.17435   0.01408   0.00000
  12        2PX         0.00000  -0.13523   0.00000   0.00000   0.00000
  13        2PY         0.02779   0.00000   0.21324   0.20133   0.00000
  14        2PZ         0.00000   0.00000   0.00000   0.00000   0.28590
  15        3S         -0.90908   0.00000  -0.78666   0.05276   0.00000
  16        3PX         0.00000   0.45810   0.00000   0.00000   0.00000
  17        3PY        -0.03911   0.00000  -0.73683  -0.72284   0.00000
  18        3PZ         0.00000   0.00000   0.00000   0.00000  -1.00986
  19        4S          0.97406   0.00000   0.81626  -0.36559   0.00000
  20        4PX         0.00000  -0.36098   0.00000   0.00000   0.00000
  21        4PY        -0.21720   0.00000   0.65291   0.97865   0.00000
  22        4PZ         0.00000   0.00000   0.00000   0.00000   1.01829
  23 3   Cl 1S         -0.03041  -0.02471   0.01427  -0.00189   0.00000
  24        2S          0.18476   0.15099  -0.08718   0.01408   0.00000
  25        2PX         0.02407   0.12612  -0.15089   0.17436   0.00000
  26        2PY        -0.01390  -0.15089  -0.04811  -0.10067   0.00000
  27        2PZ         0.00000   0.00000   0.00000   0.00000  -0.14295
  28        3S         -0.90908  -0.68127   0.39333   0.05276   0.00000
  29        3PX        -0.03387  -0.43810   0.51742  -0.62600   0.00000
  30        3PY         0.01956   0.51742   0.15936   0.36142   0.00000
  31        3PZ         0.00000   0.00000   0.00000   0.00000   0.50493
  32        4S          0.97406   0.70690  -0.40813  -0.36559   0.00000
  33        4PX        -0.18810   0.39944  -0.43903   0.84753   0.00000
  34        4PY         0.10860  -0.43903  -0.10751  -0.48932   0.00000
  35        4PZ         0.00000   0.00000   0.00000   0.00000  -0.50915
  36 4   Cl 1S         -0.03041   0.02471   0.01427  -0.00189   0.00000
  37        2S          0.18476  -0.15099  -0.08718   0.01408   0.00000
  38        2PX        -0.02407   0.12612   0.15089  -0.17436   0.00000
  39        2PY        -0.01390   0.15089  -0.04811  -0.10067   0.00000
  40        2PZ         0.00000   0.00000   0.00000   0.00000  -0.14295
  41        3S         -0.90908   0.68127   0.39333   0.05276   0.00000
  42        3PX         0.03387  -0.43810  -0.51742   0.62600   0.00000
  43        3PY         0.01956  -0.51742   0.15936   0.36142   0.00000
  44        3PZ         0.00000   0.00000   0.00000   0.00000   0.50493
  45        4S          0.97406  -0.70690  -0.40813  -0.36559   0.00000
  46        4PX         0.18810   0.39944   0.43903  -0.84753   0.00000
  47        4PY         0.10860   0.43903  -0.10751  -0.48932   0.00000
  48        4PZ         0.00000   0.00000   0.00000   0.00000  -0.50915
                          41        42        43        44        45
                        (E")--V   (E')--V   (E')--V  (A2")--V  (A2')--V
     Eigenvalues --     0.79368   0.80952   0.80952   0.83261   0.88623
   1 1   B  1S          0.00000   0.00000  -0.00000   0.00000   0.00000
   2        2S          0.00000   0.00000  -0.00000   0.00000   0.00000
   3        2PX         0.00000  -0.35913   0.00000   0.00000  -0.00000
   4        2PY         0.00000   0.00000  -0.35913   0.00000   0.00000
   5        2PZ         0.00000   0.00000   0.00000  -0.35191   0.00000
   6        3S          0.00000   0.00000   0.00000   0.00000   0.00000
   7        3PX         0.00000   2.25163   0.00000   0.00000   0.00000
   8        3PY         0.00000   0.00000   2.25163   0.00000   0.00000
   9        3PZ         0.00000   0.00000   0.00000   1.04416   0.00000
  10 2   Cl 1S          0.00000   0.00000   0.01652   0.00000   0.00000
  11        2S          0.00000   0.00000  -0.09631   0.00000   0.00000
  12        2PX         0.00000  -0.23051   0.00000   0.00000   0.19982
  13        2PY         0.00000   0.00000  -0.07608   0.00000   0.00000
  14        2PZ         0.00000   0.00000   0.00000  -0.18964   0.00000
  15        3S          0.00000   0.00000   0.60946   0.00000   0.00000
  16        3PX         0.00000   0.85172   0.00000   0.00000  -0.73146
  17        3PY         0.00000   0.00000   0.28627   0.00000   0.00000
  18        3PZ         0.00000   0.00000   0.00000   0.69013   0.00000
  19        4S          0.00000   0.00000  -1.78534   0.00000   0.00000
  20        4PX         0.00000  -1.33610   0.00000   0.00000   0.83655
  21        4PY         0.00000   0.00000   0.27421   0.00000   0.00000
  22        4PZ         0.00000   0.00000   0.00000  -0.93256   0.00000
  23 3   Cl 1S          0.00000   0.01431  -0.00826   0.00000  -0.00000
  24        2S          0.00000  -0.08341   0.04816   0.00000   0.00000
  25        2PX         0.00000  -0.11468  -0.06687   0.00000  -0.09991
  26        2PY         0.00000  -0.06687  -0.19190   0.00000  -0.17305
  27        2PZ         0.24759   0.00000   0.00000  -0.18964   0.00000
  28        3S          0.00000   0.52780  -0.30473   0.00000  -0.00000
  29        3PX         0.00000   0.42763   0.24484   0.00000   0.36573
  30        3PY         0.00000   0.24484   0.71035   0.00000   0.63346
  31        3PZ        -0.87457   0.00000   0.00000   0.69013   0.00000
  32        4S          0.00000  -1.54615   0.89267   0.00000   0.00000
  33        4PX         0.00000  -0.12837  -0.69728   0.00000  -0.41827
  34        4PY         0.00000  -0.69728  -0.93352   0.00000  -0.72447
  35        4PZ         0.88187   0.00000   0.00000  -0.93256   0.00000
  36 4   Cl 1S          0.00000  -0.01431  -0.00826   0.00000   0.00000
  37        2S          0.00000   0.08341   0.04816   0.00000  -0.00000
  38        2PX         0.00000  -0.11468   0.06687   0.00000  -0.09991
  39        2PY         0.00000   0.06687  -0.19190   0.00000   0.17305
  40        2PZ        -0.24759   0.00000   0.00000  -0.18964   0.00000
  41        3S          0.00000  -0.52780  -0.30473   0.00000   0.00000
  42        3PX         0.00000   0.42763  -0.24484   0.00000   0.36573
  43        3PY         0.00000  -0.24484   0.71035   0.00000  -0.63346
  44        3PZ         0.87457   0.00000   0.00000   0.69013   0.00000
  45        4S          0.00000   1.54615   0.89267   0.00000  -0.00000
  46        4PX         0.00000  -0.12837   0.69728   0.00000  -0.41827
  47        4PY         0.00000   0.69728  -0.93352   0.00000   0.72447
  48        4PZ        -0.88187   0.00000   0.00000  -0.93256   0.00000
                          46        47        48
                       (A1')--V   (E')--V   (E')--V
     Eigenvalues --     0.95225   1.04806   1.04806
   1 1   B  1S         -0.03305   0.00000   0.00000
   2        2S         -1.57466   0.00000   0.00000
   3        2PX         0.00000   0.07771   0.00000
   4        2PY         0.00000   0.00000   0.07771
   5        2PZ         0.00000   0.00000   0.00000
   6        3S          4.60837   0.00000  -0.00000
   7        3PX         0.00000  -2.42313   0.00000
   8        3PY        -0.00000   0.00000  -2.42313
   9        3PZ         0.00000   0.00000   0.00000
  10 2   Cl 1S          0.02310   0.00000  -0.04473
  11        2S         -0.13375   0.00000   0.26613
  12        2PX         0.00000  -0.03456   0.00000
  13        2PY         0.03305   0.00000  -0.18930
  14        2PZ         0.00000   0.00000   0.00000
  15        3S          0.90713   0.00000  -1.68842
  16        3PX         0.00000   0.10698   0.00000
  17        3PY        -0.11265   0.00000   0.75144
  18        3PZ         0.00000   0.00000   0.00000
  19        4S         -2.00965   0.00000   3.23213
  20        4PX         0.00000   0.29830   0.00000
  21        4PY         0.88299   0.00000  -1.85361
  22        4PZ         0.00000   0.00000   0.00000
  23 3   Cl 1S          0.02310  -0.03874   0.02237
  24        2S         -0.13375   0.23048  -0.13306
  25        2PX         0.02863  -0.15061   0.06700
  26        2PY        -0.01653   0.06700  -0.07324
  27        2PZ         0.00000   0.00000   0.00000
  28        3S          0.90713  -1.46222   0.84421
  29        3PX        -0.09755   0.59033  -0.27906
  30        3PY         0.05632  -0.27906   0.26810
  31        3PZ         0.00000   0.00000   0.00000
  32        4S         -2.00965   2.79910  -1.61606
  33        4PX         0.76469  -1.31563   0.93180
  34        4PY        -0.44149   0.93180  -0.23968
  35        4PZ         0.00000   0.00000   0.00000
  36 4   Cl 1S          0.02310   0.03874   0.02237
  37        2S         -0.13375  -0.23048  -0.13306
  38        2PX        -0.02863  -0.15061  -0.06700
  39        2PY        -0.01653  -0.06700  -0.07324
  40        2PZ         0.00000   0.00000   0.00000
  41        3S          0.90713   1.46222   0.84421
  42        3PX         0.09755   0.59033   0.27906
  43        3PY         0.05632   0.27906   0.26810
  44        3PZ         0.00000   0.00000   0.00000
  45        4S         -2.00965  -2.79910  -1.61606
  46        4PX        -0.76469  -1.31563  -0.93180
  47        4PY        -0.44149  -0.93180  -0.23968
  48        4PZ         0.00000   0.00000   0.00000
     Density Matrix:
                           1         2         3         4         5
   1 1   B  1S          2.02124
   2        2S          0.07522   0.16418
   3        2PX         0.00000   0.00000   0.26690
   4        2PY         0.00000   0.00000   0.00000   0.26690
   5        2PZ        -0.00000  -0.00000  -0.00000  -0.00000   0.07069
   6        3S         -0.24340   0.19556  -0.00000   0.00000   0.00000
   7        3PX         0.00000  -0.00000   0.08865   0.00000   0.00000
   8        3PY         0.00000  -0.00000  -0.00000   0.08865  -0.00000
   9        3PZ        -0.00000   0.00000   0.00000  -0.00000   0.06255
  10 2   Cl 1S         -0.00219   0.00741   0.00000   0.01038   0.00000
  11        2S          0.01243  -0.02491  -0.00000  -0.05062  -0.00000
  12        2PX        -0.00000   0.00000  -0.01869   0.00000   0.00000
  13        2PY        -0.04540   0.06761   0.00000   0.15148   0.00000
  14        2PZ        -0.00000   0.00000   0.00000   0.00000  -0.05628
  15        3S         -0.02542   0.02355   0.00000   0.06342   0.00000
  16        3PX         0.00000  -0.00000   0.03535  -0.00000  -0.00000
  17        3PY         0.09609  -0.13754  -0.00000  -0.31376  -0.00000
  18        3PZ         0.00000  -0.00000   0.00000  -0.00000   0.11851
  19        4S          0.05418  -0.04094  -0.00000  -0.01963   0.00000
  20        4PX         0.00000  -0.00000  -0.00412  -0.00000  -0.00000
  21        4PY         0.03191  -0.06280  -0.00000  -0.19754  -0.00000
  22        4PZ         0.00000  -0.00000  -0.00000  -0.00000   0.08391
  23 3   Cl 1S         -0.00219   0.00741   0.00899  -0.00519   0.00000
  24        2S          0.01243  -0.02491  -0.04383   0.02531  -0.00000
  25        2PX        -0.03932   0.05855   0.10894  -0.07369   0.00000
  26        2PY         0.02270  -0.03380  -0.07369   0.02385   0.00000
  27        2PZ        -0.00000  -0.00000   0.00000  -0.00000  -0.05628
  28        3S         -0.02542   0.02355   0.05493  -0.03171   0.00000
  29        3PX         0.08321  -0.11911  -0.22648   0.15117  -0.00000
  30        3PY        -0.04804   0.06877   0.15117  -0.05193  -0.00000
  31        3PZ         0.00000   0.00000  -0.00000   0.00000   0.11851
  32        4S          0.05418  -0.04094  -0.01700   0.00982  -0.00000
  33        4PX         0.02764  -0.05439  -0.14918   0.08375   0.00000
  34        4PY        -0.01596   0.03140   0.08375  -0.05248  -0.00000
  35        4PZ        -0.00000   0.00000   0.00000  -0.00000   0.08391
  36 4   Cl 1S         -0.00219   0.00741  -0.00899  -0.00519  -0.00000
  37        2S          0.01243  -0.02491   0.04383   0.02531   0.00000
  38        2PX         0.03932  -0.05855   0.10894   0.07369   0.00000
  39        2PY         0.02270  -0.03380   0.07369   0.02385  -0.00000
  40        2PZ         0.00000   0.00000   0.00000   0.00000  -0.05628
  41        3S         -0.02542   0.02355  -0.05493  -0.03171  -0.00000
  42        3PX        -0.08321   0.11911  -0.22648  -0.15117  -0.00000
  43        3PY        -0.04804   0.06877  -0.15117  -0.05193   0.00000
  44        3PZ        -0.00000  -0.00000  -0.00000  -0.00000   0.11851
  45        4S          0.05418  -0.04094   0.01700   0.00982   0.00000
  46        4PX        -0.02764   0.05439  -0.14918  -0.08375   0.00000
  47        4PY        -0.01596   0.03140  -0.08375  -0.05248   0.00000
  48        4PZ         0.00000  -0.00000   0.00000   0.00000   0.08391
                           6         7         8         9        10
   6        3S          0.34477
   7        3PX        -0.00000   0.12339
   8        3PY        -0.00000  -0.00000   0.12339
   9        3PZ         0.00000  -0.00000  -0.00000   0.05561
  10 2   Cl 1S         -0.03990  -0.00000  -0.04646  -0.00000   2.14409
  11        2S          0.12185   0.00000   0.13460   0.00000  -0.57324
  12        2PX         0.00000  -0.07039   0.00000   0.00000  -0.00000
  13        2PY         0.07376   0.00000   0.01433   0.00000  -0.00551
  14        2PZ         0.00000   0.00000   0.00000  -0.03678  -0.00000
  15        3S         -0.05756  -0.00000  -0.05221  -0.00000  -0.03416
  16        3PX        -0.00000   0.20348  -0.00000  -0.00000   0.00000
  17        3PY        -0.21969  -0.00000  -0.08630  -0.00000   0.01500
  18        3PZ        -0.00000  -0.00000  -0.00000   0.10599   0.00000
  19        4S         -0.16811  -0.00000  -0.16426  -0.00000   0.18447
  20        4PX        -0.00000   0.13584  -0.00000  -0.00000  -0.00000
  21        4PY        -0.09435  -0.00000  -0.00931  -0.00000  -0.02582
  22        4PZ        -0.00000  -0.00000  -0.00000   0.07392  -0.00000
  23 3   Cl 1S         -0.03990  -0.04024   0.02323  -0.00000   0.00003
  24        2S          0.12185   0.11657  -0.06730  -0.00000  -0.00002
  25        2PX         0.06388  -0.00685  -0.03668   0.00000  -0.00013
  26        2PY        -0.03688  -0.03668  -0.04921   0.00000   0.00179
  27        2PZ         0.00000   0.00000   0.00000  -0.03678   0.00000
  28        3S         -0.05756  -0.04522   0.02611   0.00000   0.00302
  29        3PX        -0.19026  -0.01385   0.12548  -0.00000  -0.00052
  30        3PY         0.10985   0.12548   0.13104  -0.00000  -0.00372
  31        3PZ        -0.00000  -0.00000   0.00000   0.10599  -0.00000
  32        4S         -0.16811  -0.14225   0.08213   0.00000  -0.00911
  33        4PX        -0.08171   0.02698   0.06285  -0.00000   0.00695
  34        4PY         0.04717   0.06285   0.09955   0.00000   0.00024
  35        4PZ         0.00000  -0.00000  -0.00000   0.07392  -0.00000
  36 4   Cl 1S         -0.03990   0.04024   0.02323   0.00000   0.00003
  37        2S          0.12185  -0.11657  -0.06730   0.00000  -0.00002
  38        2PX        -0.06388  -0.00685   0.03668   0.00000   0.00013
  39        2PY        -0.03688   0.03668  -0.04921  -0.00000   0.00179
  40        2PZ        -0.00000   0.00000  -0.00000  -0.03678  -0.00000
  41        3S         -0.05756   0.04522   0.02611  -0.00000   0.00302
  42        3PX         0.19026  -0.01385  -0.12548  -0.00000   0.00052
  43        3PY         0.10985  -0.12548   0.13104   0.00000  -0.00372
  44        3PZ         0.00000  -0.00000  -0.00000   0.10599   0.00000
  45        4S         -0.16811   0.14225   0.08213  -0.00000  -0.00911
  46        4PX         0.08171   0.02698  -0.06285  -0.00000  -0.00695
  47        4PY         0.04717  -0.06285   0.09955  -0.00000   0.00024
  48        4PZ        -0.00000  -0.00000   0.00000   0.07392   0.00000
                          11        12        13        14        15
  11        2S          2.38953
  12        2PX         0.00000   2.05865
  13        2PY         0.03005  -0.00000   2.01518
  14        2PZ         0.00000   0.00000  -0.00000   2.04747
  15        3S         -0.27589  -0.00000  -0.04443  -0.00000   0.75093
  16        3PX        -0.00000  -0.19753   0.00000  -0.00000   0.00000
  17        3PY        -0.07054   0.00000  -0.09875  -0.00000   0.06134
  18        3PZ        -0.00000  -0.00000  -0.00000  -0.17034   0.00000
  19        4S         -0.73407  -0.00000  -0.04813  -0.00000   0.63964
  20        4PX         0.00000  -0.32302   0.00000   0.00000   0.00000
  21        4PY         0.04307   0.00000  -0.22727   0.00000   0.02724
  22        4PZ         0.00000   0.00000   0.00000  -0.31555   0.00000
  23 3   Cl 1S         -0.00002   0.00148  -0.00101  -0.00000   0.00302
  24        2S         -0.00110  -0.00937   0.00705   0.00000  -0.00565
  25        2PX         0.00142   0.00561  -0.00624   0.00000  -0.00288
  26        2PY        -0.01164  -0.01194   0.01611  -0.00000   0.00491
  27        2PZ        -0.00000  -0.00000   0.00000  -0.01215   0.00000
  28        3S         -0.00565   0.00281  -0.00495   0.00000   0.00062
  29        3PX        -0.00123  -0.01242   0.01358  -0.00000   0.01224
  30        3PY         0.02557   0.02678  -0.03490   0.00000  -0.01425
  31        3PZ        -0.00000  -0.00000   0.00000   0.02610  -0.00000
  32        4S          0.02473   0.06159  -0.02854  -0.00000  -0.00482
  33        4PX        -0.01896  -0.03025   0.01680   0.00000   0.01189
  34        4PY         0.00974   0.04680  -0.04748  -0.00000  -0.00594
  35        4PZ         0.00000   0.00000   0.00000   0.03398  -0.00000
  36 4   Cl 1S         -0.00002  -0.00148  -0.00101   0.00000   0.00302
  37        2S         -0.00110   0.00937   0.00705  -0.00000  -0.00565
  38        2PX        -0.00142   0.00561   0.00624   0.00000   0.00288
  39        2PY        -0.01164   0.01194   0.01611   0.00000   0.00491
  40        2PZ         0.00000  -0.00000  -0.00000  -0.01215  -0.00000
  41        3S         -0.00565  -0.00281  -0.00495  -0.00000   0.00062
  42        3PX         0.00123  -0.01242  -0.01358  -0.00000  -0.01224
  43        3PY         0.02557  -0.02678  -0.03490  -0.00000  -0.01425
  44        3PZ         0.00000  -0.00000  -0.00000   0.02610   0.00000
  45        4S          0.02473  -0.06159  -0.02854   0.00000  -0.00482
  46        4PX         0.01896  -0.03025  -0.01680   0.00000  -0.01189
  47        4PY         0.00974  -0.04680  -0.04748   0.00000  -0.00594
  48        4PZ        -0.00000   0.00000  -0.00000   0.03398   0.00000
                          16        17        18        19        20
  16        3PX         0.78759
  17        3PY        -0.00000   0.57597
  18        3PZ         0.00000  -0.00000   0.72066
  19        4S          0.00000   0.19680   0.00000   0.76746
  20        4PX         0.59078  -0.00000   0.00000   0.00000   0.46388
  21        4PY        -0.00000   0.33737  -0.00000   0.04714  -0.00000
  22        4PZ        -0.00000  -0.00000   0.57583   0.00000  -0.00000
  23 3   Cl 1S         -0.00348   0.00141  -0.00000  -0.00911   0.00369
  24        2S          0.02153  -0.01385  -0.00000   0.02473  -0.00105
  25        2PX        -0.01181   0.01323  -0.00000   0.00608  -0.01563
  26        2PY         0.02642  -0.03552   0.00000   0.06761   0.03837
  27        2PZ         0.00000   0.00000   0.02610  -0.00000  -0.00000
  28        3S         -0.00622   0.01773  -0.00000  -0.00482   0.00080
  29        3PX         0.02618  -0.03155   0.00000  -0.03740   0.03755
  30        3PY        -0.06250   0.08047  -0.00000  -0.15926  -0.08474
  31        3PZ        -0.00000  -0.00000  -0.05513   0.00000   0.00000
  32        4S         -0.15663   0.04724   0.00000  -0.02815  -0.09908
  33        4PX         0.07287  -0.02809  -0.00000  -0.01528   0.06317
  34        4PY        -0.10513   0.10269   0.00000  -0.10559  -0.10404
  35        4PZ        -0.00000  -0.00000  -0.07897   0.00000  -0.00000
  36 4   Cl 1S          0.00348   0.00141   0.00000  -0.00911  -0.00369
  37        2S         -0.02153  -0.01385   0.00000   0.02473   0.00105
  38        2PX        -0.01181  -0.01323  -0.00000  -0.00608  -0.01563
  39        2PY        -0.02642  -0.03552  -0.00000   0.06761  -0.03837
  40        2PZ         0.00000  -0.00000   0.02610   0.00000  -0.00000
  41        3S          0.00622   0.01773   0.00000  -0.00482  -0.00080
  42        3PX         0.02618   0.03155   0.00000   0.03740   0.03755
  43        3PY         0.06250   0.08047   0.00000  -0.15926   0.08474
  44        3PZ        -0.00000   0.00000  -0.05513  -0.00000   0.00000
  45        4S          0.15663   0.04724  -0.00000  -0.02815   0.09908
  46        4PX         0.07287   0.02809  -0.00000   0.01528   0.06317
  47        4PY         0.10513   0.10269  -0.00000  -0.10559   0.10404
  48        4PZ        -0.00000   0.00000  -0.07897  -0.00000  -0.00000
                          21        22        23        24        25
  21        4PY         0.23772
  22        4PZ        -0.00000   0.47965
  23 3   Cl 1S          0.00590   0.00000   2.14409
  24        2S         -0.02129  -0.00000  -0.57324   2.38953
  25        2PX         0.00837   0.00000  -0.00478   0.02602   2.02605
  26        2PY        -0.06210   0.00000   0.00276  -0.01502   0.01882
  27        2PZ         0.00000   0.03398  -0.00000   0.00000  -0.00000
  28        3S          0.01327   0.00000  -0.03416  -0.27589  -0.03848
  29        3PX        -0.00770  -0.00000   0.01299  -0.06109  -0.12344
  30        3PY         0.13801  -0.00000  -0.00750   0.03527  -0.04278
  31        3PZ        -0.00000  -0.07897   0.00000   0.00000   0.00000
  32        4S          0.03957   0.00000   0.18447  -0.73407  -0.04168
  33        4PX        -0.01110  -0.00000  -0.02236   0.03730  -0.25120
  34        4PY         0.12964   0.00000   0.01291  -0.02154  -0.04146
  35        4PZ        -0.00000  -0.08983  -0.00000  -0.00000   0.00000
  36 4   Cl 1S          0.00590  -0.00000   0.00003  -0.00002  -0.00162
  37        2S         -0.02129   0.00000  -0.00002  -0.00110   0.01079
  38        2PX        -0.00837   0.00000   0.00162  -0.01079   0.02136
  39        2PY        -0.06210  -0.00000  -0.00078   0.00459  -0.00285
  40        2PZ        -0.00000   0.03398  -0.00000   0.00000   0.00000
  41        3S          0.01327  -0.00000   0.00302  -0.00565  -0.00569
  42        3PX         0.00770  -0.00000  -0.00296   0.02276  -0.04676
  43        3PY         0.13801   0.00000   0.00231  -0.01171   0.00625
  44        3PZ         0.00000  -0.07897  -0.00000   0.00000  -0.00000
  45        4S          0.03957  -0.00000  -0.00911   0.02473  -0.05551
  46        4PX         0.01110  -0.00000  -0.00327   0.01791  -0.07072
  47        4PY         0.12964  -0.00000  -0.00614   0.01155   0.00656
  48        4PZ         0.00000  -0.08983   0.00000  -0.00000  -0.00000
                          26        27        28        29        30
  26        2PY         2.04779
  27        2PZ         0.00000   2.04747
  28        3S          0.02222   0.00000   0.75093
  29        3PX        -0.04278   0.00000   0.05312   0.62887
  30        3PY        -0.17284  -0.00000  -0.03067   0.09164   0.73468
  31        3PZ        -0.00000  -0.17034  -0.00000  -0.00000   0.00000
  32        4S          0.02407  -0.00000   0.63964   0.17044  -0.09840
  33        4PX        -0.04146   0.00000   0.02359   0.40072   0.10973
  34        4PY        -0.29908  -0.00000  -0.01362   0.10973   0.52742
  35        4PZ        -0.00000  -0.31555  -0.00000  -0.00000   0.00000
  36 4   Cl 1S         -0.00078   0.00000   0.00302   0.00296   0.00231
  37        2S          0.00459  -0.00000  -0.00565  -0.02276  -0.01171
  38        2PX         0.00285   0.00000   0.00569  -0.04676  -0.00625
  39        2PY         0.00036   0.00000   0.00004   0.00695  -0.00056
  40        2PZ        -0.00000  -0.01215   0.00000  -0.00000   0.00000
  41        3S          0.00004  -0.00000   0.00062   0.01846  -0.00348
  42        3PX        -0.00695  -0.00000  -0.01846   0.10762   0.01547
  43        3PY        -0.00056  -0.00000  -0.00348  -0.01547  -0.00097
  44        3PZ         0.00000   0.02610  -0.00000   0.00000  -0.00000
  45        4S         -0.03907   0.00000  -0.00482   0.11922   0.11202
  46        4PX        -0.02344   0.00000  -0.01109   0.15292   0.05891
  47        4PY        -0.00701   0.00000  -0.00733  -0.01813   0.02264
  48        4PZ        -0.00000   0.03398   0.00000   0.00000  -0.00000
                          31        32        33        34        35
  31        3PZ         0.72066
  32        4S          0.00000   0.76746
  33        4PX        -0.00000   0.04083   0.29426
  34        4PY         0.00000  -0.02357   0.09793   0.40734
  35        4PZ         0.57583   0.00000  -0.00000   0.00000   0.47965
  36 4   Cl 1S          0.00000  -0.00911   0.00327  -0.00614  -0.00000
  37        2S         -0.00000   0.02473  -0.01791   0.01155   0.00000
  38        2PX        -0.00000   0.05551  -0.07072  -0.00656  -0.00000
  39        2PY        -0.00000  -0.03907   0.02344  -0.00701   0.00000
  40        2PZ         0.02610  -0.00000   0.00000  -0.00000   0.03398
  41        3S          0.00000  -0.00482   0.01109  -0.00733  -0.00000
  42        3PX         0.00000  -0.11922   0.15292   0.01813   0.00000
  43        3PY         0.00000   0.11202  -0.05891   0.02264   0.00000
  44        3PZ        -0.05513   0.00000  -0.00000   0.00000  -0.07897
  45        4S         -0.00000  -0.02815   0.08380   0.06602  -0.00000
  46        4PX        -0.00000  -0.08380   0.16288   0.04647  -0.00000
  47        4PY        -0.00000   0.06602  -0.04647   0.02993  -0.00000
  48        4PZ        -0.07897   0.00000  -0.00000   0.00000  -0.08983
                          36        37        38        39        40
  36 4   Cl 1S          2.14409
  37        2S         -0.57324   2.38953
  38        2PX         0.00478  -0.02602   2.02605
  39        2PY         0.00276  -0.01502  -0.01882   2.04779
  40        2PZ         0.00000  -0.00000  -0.00000  -0.00000   2.04747
  41        3S         -0.03416  -0.27589   0.03848   0.02222  -0.00000
  42        3PX        -0.01299   0.06109  -0.12344   0.04278   0.00000
  43        3PY        -0.00750   0.03527   0.04278  -0.17284   0.00000
  44        3PZ        -0.00000  -0.00000   0.00000   0.00000  -0.17034
  45        4S          0.18447  -0.73407   0.04168   0.02407   0.00000
  46        4PX         0.02236  -0.03730  -0.25120   0.04146   0.00000
  47        4PY         0.01291  -0.02154   0.04146  -0.29908   0.00000
  48        4PZ         0.00000   0.00000   0.00000   0.00000  -0.31555
                          41        42        43        44        45
  41        3S          0.75093
  42        3PX        -0.05312   0.62887
  43        3PY        -0.03067  -0.09164   0.73468
  44        3PZ         0.00000  -0.00000  -0.00000   0.72066
  45        4S          0.63964  -0.17044  -0.09840  -0.00000   0.76746
  46        4PX        -0.02359   0.40072  -0.10973  -0.00000  -0.04083
  47        4PY        -0.01362  -0.10973   0.52742  -0.00000  -0.02357
  48        4PZ         0.00000  -0.00000  -0.00000   0.57583  -0.00000
                          46        47        48
  46        4PX         0.29426
  47        4PY        -0.09793   0.40734
  48        4PZ        -0.00000  -0.00000   0.47965
    Full Mulliken population analysis:
                           1         2         3         4         5
   1 1   B  1S          2.02124
   2        2S          0.01375   0.16418
   3        2PX         0.00000   0.00000   0.26690
   4        2PY         0.00000   0.00000  -0.00000   0.26690
   5        2PZ         0.00000   0.00000   0.00000   0.00000   0.07069
   6        3S         -0.04232   0.15162   0.00000   0.00000   0.00000
   7        3PX         0.00000   0.00000   0.04887  -0.00000  -0.00000
   8        3PY         0.00000   0.00000  -0.00000   0.04887   0.00000
   9        3PZ         0.00000   0.00000  -0.00000   0.00000   0.03448
  10 2   Cl 1S         -0.00000   0.00000   0.00000   0.00002   0.00000
  11        2S          0.00000  -0.00014  -0.00000  -0.00082  -0.00000
  12        2PX         0.00000  -0.00000  -0.00003  -0.00000  -0.00000
  13        2PY         0.00000  -0.00036  -0.00000  -0.00215  -0.00000
  14        2PZ         0.00000  -0.00000  -0.00000  -0.00000  -0.00009
  15        3S         -0.00007   0.00193   0.00000   0.00935   0.00000
  16        3PX        -0.00000   0.00000   0.00170   0.00000   0.00000
  17        3PY        -0.00081   0.01962   0.00000   0.07159   0.00000
  18        3PZ        -0.00000   0.00000  -0.00000   0.00000   0.00571
  19        4S          0.00192  -0.00933  -0.00000  -0.00448   0.00000
  20        4PX        -0.00000   0.00000  -0.00069   0.00000   0.00000
  21        4PY        -0.00297   0.02801   0.00000   0.05883   0.00000
  22        4PZ        -0.00000   0.00000   0.00000   0.00000   0.01402
  23 3   Cl 1S         -0.00000   0.00000   0.00001   0.00000  -0.00000
  24        2S          0.00000  -0.00014  -0.00062  -0.00021   0.00000
  25        2PX         0.00000  -0.00027  -0.00111  -0.00051   0.00000
  26        2PY         0.00000  -0.00009  -0.00051  -0.00005  -0.00000
  27        2PZ        -0.00000  -0.00000   0.00000   0.00000  -0.00009
  28        3S         -0.00007   0.00193   0.00701   0.00234  -0.00000
  29        3PX        -0.00061   0.01471   0.03603   0.01809  -0.00000
  30        3PY        -0.00020   0.00490   0.01809   0.00109   0.00000
  31        3PZ         0.00000   0.00000  -0.00000  -0.00000   0.00571
  32        4S          0.00192  -0.00933  -0.00336  -0.00112   0.00000
  33        4PX        -0.00223   0.02101   0.02709   0.01686   0.00000
  34        4PY        -0.00074   0.00700   0.01686  -0.00267   0.00000
  35        4PZ        -0.00000   0.00000   0.00000   0.00000   0.01402
  36 4   Cl 1S         -0.00000   0.00000   0.00001   0.00000   0.00000
  37        2S          0.00000  -0.00014  -0.00062  -0.00021   0.00000
  38        2PX         0.00000  -0.00027  -0.00111  -0.00051  -0.00000
  39        2PY         0.00000  -0.00009  -0.00051  -0.00005   0.00000
  40        2PZ         0.00000  -0.00000   0.00000  -0.00000  -0.00009
  41        3S         -0.00007   0.00193   0.00701   0.00234  -0.00000
  42        3PX        -0.00061   0.01471   0.03603   0.01809  -0.00000
  43        3PY        -0.00020   0.00490   0.01809   0.00109  -0.00000
  44        3PZ        -0.00000   0.00000  -0.00000  -0.00000   0.00571
  45        4S          0.00192  -0.00933  -0.00336  -0.00112   0.00000
  46        4PX        -0.00223   0.02101   0.02709   0.01686   0.00000
  47        4PY        -0.00074   0.00700   0.01686  -0.00267  -0.00000
  48        4PZ         0.00000   0.00000  -0.00000  -0.00000   0.01402
                           6         7         8         9        10
   6        3S          0.34477
   7        3PX         0.00000   0.12339
   8        3PY         0.00000   0.00000   0.12339
   9        3PZ         0.00000   0.00000   0.00000   0.05561
  10 2   Cl 1S         -0.00027  -0.00000  -0.00074  -0.00000   2.14409
  11        2S          0.00644   0.00000   0.01626   0.00000  -0.14872
  12        2PX        -0.00000  -0.00090  -0.00000  -0.00000   0.00000
  13        2PY        -0.00112  -0.00000  -0.00031  -0.00000   0.00000
  14        2PZ        -0.00000  -0.00000  -0.00000  -0.00047   0.00000
  15        3S         -0.01389  -0.00000  -0.02372  -0.00000  -0.00202
  16        3PX         0.00000   0.03255   0.00000   0.00000   0.00000
  17        3PY         0.04148   0.00000   0.01768   0.00000   0.00000
  18        3PZ         0.00000   0.00000   0.00000   0.01696   0.00000
  19        4S         -0.07448  -0.00000  -0.09841  -0.00000   0.00625
  20        4PX         0.00000   0.05954   0.00000   0.00000   0.00000
  21        4PY         0.04881   0.00000   0.00243   0.00000   0.00000
  22        4PZ         0.00000   0.00000   0.00000   0.03240   0.00000
  23 3   Cl 1S         -0.00027  -0.00056  -0.00019   0.00000   0.00000
  24        2S          0.00644   0.01220   0.00407   0.00000   0.00000
  25        2PX        -0.00084   0.00009  -0.00055   0.00000   0.00000
  26        2PY        -0.00028  -0.00055  -0.00020  -0.00000   0.00000
  27        2PZ         0.00000   0.00000  -0.00000  -0.00047   0.00000
  28        3S         -0.01389  -0.01779  -0.00593  -0.00000   0.00000
  29        3PX         0.03111   0.00157   0.01982  -0.00000   0.00000
  30        3PY         0.01037   0.01982   0.00901   0.00000  -0.00000
  31        3PZ        -0.00000  -0.00000  -0.00000   0.01696   0.00000
  32        4S         -0.07448  -0.07381  -0.02460  -0.00000  -0.00000
  33        4PX         0.03661  -0.00233   0.01904  -0.00000  -0.00000
  34        4PY         0.01220   0.01904   0.02623  -0.00000   0.00000
  35        4PZ         0.00000  -0.00000   0.00000   0.03240   0.00000
  36 4   Cl 1S         -0.00027  -0.00056  -0.00019  -0.00000   0.00000
  37        2S          0.00644   0.01220   0.00407   0.00000   0.00000
  38        2PX        -0.00084   0.00009  -0.00055   0.00000   0.00000
  39        2PY        -0.00028  -0.00055  -0.00020   0.00000   0.00000
  40        2PZ        -0.00000   0.00000   0.00000  -0.00047   0.00000
  41        3S         -0.01389  -0.01779  -0.00593  -0.00000   0.00000
  42        3PX         0.03111   0.00157   0.01982   0.00000   0.00000
  43        3PY         0.01037   0.01982   0.00901  -0.00000  -0.00000
  44        3PZ         0.00000  -0.00000   0.00000   0.01696  -0.00000
  45        4S         -0.07448  -0.07381  -0.02460   0.00000  -0.00000
  46        4PX         0.03661  -0.00233   0.01904  -0.00000  -0.00000
  47        4PY         0.01220   0.01904   0.02623   0.00000   0.00000
  48        4PZ         0.00000  -0.00000  -0.00000   0.03240  -0.00000
                          11        12        13        14        15
  11        2S          2.38953
  12        2PX         0.00000   2.05865
  13        2PY         0.00000   0.00000   2.01518
  14        2PZ         0.00000  -0.00000   0.00000   2.04747
  15        3S         -0.11996   0.00000   0.00000   0.00000   0.75093
  16        3PX         0.00000  -0.06347   0.00000   0.00000   0.00000
  17        3PY         0.00000  -0.00000  -0.03173   0.00000   0.00000
  18        3PZ         0.00000   0.00000   0.00000  -0.05473   0.00000
  19        4S         -0.18346   0.00000   0.00000   0.00000   0.52725
  20        4PX         0.00000  -0.02266  -0.00000  -0.00000   0.00000
  21        4PY         0.00000   0.00000  -0.01594  -0.00000   0.00000
  22        4PZ         0.00000  -0.00000  -0.00000  -0.02214   0.00000
  23 3   Cl 1S          0.00000   0.00000   0.00000   0.00000   0.00000
  24        2S          0.00000   0.00000   0.00000   0.00000  -0.00000
  25        2PX         0.00000   0.00000   0.00000   0.00000   0.00000
  26        2PY         0.00000   0.00000   0.00000   0.00000   0.00000
  27        2PZ         0.00000   0.00000   0.00000   0.00000   0.00000
  28        3S         -0.00000   0.00000   0.00000  -0.00000   0.00000
  29        3PX         0.00000   0.00000   0.00000  -0.00000  -0.00000
  30        3PY         0.00000   0.00000   0.00000  -0.00000  -0.00001
  31        3PZ        -0.00000  -0.00000  -0.00000   0.00000  -0.00000
  32        4S          0.00003   0.00002   0.00002   0.00000  -0.00006
  33        4PX         0.00005   0.00002   0.00002   0.00000  -0.00026
  34        4PY         0.00004   0.00007   0.00011   0.00000  -0.00023
  35        4PZ         0.00000   0.00000  -0.00000   0.00001  -0.00000
  36 4   Cl 1S          0.00000   0.00000   0.00000   0.00000   0.00000
  37        2S          0.00000   0.00000   0.00000   0.00000  -0.00000
  38        2PX         0.00000   0.00000   0.00000   0.00000   0.00000
  39        2PY         0.00000   0.00000   0.00000   0.00000   0.00000
  40        2PZ         0.00000   0.00000   0.00000   0.00000   0.00000
  41        3S         -0.00000   0.00000   0.00000  -0.00000   0.00000
  42        3PX         0.00000   0.00000   0.00000  -0.00000  -0.00000
  43        3PY         0.00000   0.00000   0.00000  -0.00000  -0.00001
  44        3PZ        -0.00000  -0.00000  -0.00000   0.00000  -0.00000
  45        4S          0.00003   0.00002   0.00002   0.00000  -0.00006
  46        4PX         0.00005   0.00002   0.00002   0.00000  -0.00026
  47        4PY         0.00004   0.00007   0.00011   0.00000  -0.00023
  48        4PZ         0.00000   0.00000  -0.00000   0.00001  -0.00000
                          16        17        18        19        20
  16        3PX         0.78759
  17        3PY         0.00000   0.57597
  18        3PZ        -0.00000   0.00000   0.72066
  19        4S          0.00000   0.00000   0.00000   0.76746
  20        4PX         0.36797  -0.00000  -0.00000   0.00000   0.46388
  21        4PY         0.00000   0.21013   0.00000   0.00000   0.00000
  22        4PZ         0.00000   0.00000   0.35866   0.00000   0.00000
  23 3   Cl 1S         -0.00000  -0.00000   0.00000  -0.00000   0.00000
  24        2S          0.00000   0.00000   0.00000   0.00003  -0.00000
  25        2PX         0.00000   0.00000  -0.00000  -0.00000   0.00001
  26        2PY         0.00000   0.00000  -0.00000   0.00004   0.00006
  27        2PZ         0.00000  -0.00000   0.00000  -0.00000  -0.00000
  28        3S         -0.00000  -0.00001   0.00000  -0.00006   0.00002
  29        3PX        -0.00001  -0.00002   0.00000   0.00037  -0.00036
  30        3PY        -0.00005  -0.00010   0.00000  -0.00272  -0.00263
  31        3PZ        -0.00000   0.00000  -0.00001   0.00000   0.00000
  32        4S         -0.00154  -0.00081  -0.00000  -0.00171  -0.00712
  33        4PX        -0.00070  -0.00087  -0.00000   0.00110  -0.00154
  34        4PY        -0.00326  -0.00466  -0.00000  -0.01314  -0.01532
  35        4PZ        -0.00000   0.00000  -0.00066   0.00000  -0.00000
  36 4   Cl 1S         -0.00000  -0.00000   0.00000  -0.00000   0.00000
  37        2S          0.00000   0.00000   0.00000   0.00003  -0.00000
  38        2PX         0.00000   0.00000  -0.00000  -0.00000   0.00001
  39        2PY         0.00000   0.00000  -0.00000   0.00004   0.00006
  40        2PZ         0.00000  -0.00000   0.00000  -0.00000  -0.00000
  41        3S         -0.00000  -0.00001   0.00000  -0.00006   0.00002
  42        3PX        -0.00001  -0.00002   0.00000   0.00037  -0.00036
  43        3PY        -0.00005  -0.00010   0.00000  -0.00272  -0.00263
  44        3PZ        -0.00000   0.00000  -0.00001   0.00000   0.00000
  45        4S         -0.00154  -0.00081  -0.00000  -0.00171  -0.00712
  46        4PX        -0.00070  -0.00087  -0.00000   0.00110  -0.00154
  47        4PY        -0.00326  -0.00466  -0.00000  -0.01314  -0.01532
  48        4PZ        -0.00000   0.00000  -0.00066   0.00000  -0.00000
                          21        22        23        24        25
  21        4PY         0.23772
  22        4PZ         0.00000   0.47965
  23 3   Cl 1S         -0.00000  -0.00000   2.14409
  24        2S          0.00010   0.00000  -0.14872   2.38953
  25        2PX         0.00001   0.00000   0.00000   0.00000   2.02605
  26        2PY         0.00014  -0.00000   0.00000   0.00000  -0.00000
  27        2PZ        -0.00000   0.00001   0.00000   0.00000   0.00000
  28        3S         -0.00051  -0.00000  -0.00202  -0.11996   0.00000
  29        3PX        -0.00024  -0.00000   0.00000   0.00000  -0.03966
  30        3PY        -0.00626   0.00000   0.00000   0.00000   0.00000
  31        3PZ         0.00000  -0.00066   0.00000   0.00000  -0.00000
  32        4S         -0.00492  -0.00000   0.00625  -0.18346   0.00000
  33        4PX        -0.00163  -0.00000   0.00000   0.00000  -0.01762
  34        4PY        -0.02520  -0.00000   0.00000   0.00000  -0.00000
  35        4PZ         0.00000  -0.00545   0.00000   0.00000  -0.00000
  36 4   Cl 1S         -0.00000   0.00000   0.00000   0.00000   0.00000
  37        2S          0.00010   0.00000   0.00000   0.00000   0.00000
  38        2PX         0.00001   0.00000   0.00000   0.00000   0.00000
  39        2PY         0.00014  -0.00000   0.00000   0.00000   0.00000
  40        2PZ        -0.00000   0.00001   0.00000   0.00000   0.00000
  41        3S         -0.00051  -0.00000   0.00000  -0.00000   0.00000
  42        3PX        -0.00024  -0.00000  -0.00000   0.00000   0.00000
  43        3PY        -0.00626   0.00000  -0.00000  -0.00000  -0.00000
  44        3PZ         0.00000  -0.00066   0.00000  -0.00000  -0.00000
  45        4S         -0.00492  -0.00000  -0.00000   0.00003   0.00004
  46        4PX        -0.00163  -0.00000  -0.00000   0.00009   0.00022
  47        4PY        -0.02520  -0.00000   0.00000   0.00000  -0.00000
  48        4PZ         0.00000  -0.00545   0.00000   0.00000  -0.00000
                          26        27        28        29        30
  26        2PY         2.04779
  27        2PZ         0.00000   2.04747
  28        3S          0.00000   0.00000   0.75093
  29        3PX         0.00000  -0.00000   0.00000   0.62887
  30        3PY        -0.05553  -0.00000   0.00000   0.00000   0.73468
  31        3PZ        -0.00000  -0.05473   0.00000   0.00000   0.00000
  32        4S          0.00000   0.00000   0.52725   0.00000   0.00000
  33        4PX         0.00000  -0.00000   0.00000   0.24959   0.00000
  34        4PY        -0.02098  -0.00000   0.00000   0.00000   0.32851
  35        4PZ        -0.00000  -0.02214   0.00000   0.00000   0.00000
  36 4   Cl 1S          0.00000   0.00000   0.00000  -0.00000  -0.00000
  37        2S          0.00000   0.00000  -0.00000   0.00000  -0.00000
  38        2PX         0.00000   0.00000   0.00000   0.00000  -0.00000
  39        2PY         0.00000   0.00000  -0.00000   0.00000  -0.00000
  40        2PZ         0.00000   0.00000   0.00000   0.00000   0.00000
  41        3S         -0.00000  -0.00000   0.00000  -0.00001   0.00000
  42        3PX         0.00000  -0.00000  -0.00001  -0.00018   0.00000
  43        3PY        -0.00000  -0.00000   0.00000   0.00000  -0.00000
  44        3PZ         0.00000   0.00000   0.00000   0.00000  -0.00000
  45        4S          0.00000   0.00000  -0.00006  -0.00235  -0.00000
  46        4PX         0.00000   0.00000  -0.00049  -0.00967  -0.00000
  47        4PY        -0.00000   0.00000  -0.00000   0.00000   0.00019
  48        4PZ        -0.00000   0.00001  -0.00000   0.00000  -0.00000
                          31        32        33        34        35
  31        3PZ         0.72066
  32        4S          0.00000   0.76746
  33        4PX         0.00000   0.00000   0.29426
  34        4PY         0.00000   0.00000  -0.00000   0.40734
  35        4PZ         0.35866   0.00000   0.00000   0.00000   0.47965
  36 4   Cl 1S          0.00000  -0.00000  -0.00000   0.00000  -0.00000
  37        2S          0.00000   0.00003   0.00009   0.00000   0.00000
  38        2PX         0.00000   0.00004   0.00022  -0.00000   0.00000
  39        2PY         0.00000   0.00000   0.00000  -0.00000   0.00000
  40        2PZ         0.00000   0.00000   0.00000   0.00000   0.00001
  41        3S          0.00000  -0.00006  -0.00049  -0.00000   0.00000
  42        3PX         0.00000  -0.00235  -0.00967   0.00000   0.00000
  43        3PY         0.00000  -0.00000  -0.00000   0.00019   0.00000
  44        3PZ        -0.00001   0.00000   0.00000   0.00000  -0.00066
  45        4S         -0.00000  -0.00171  -0.01204   0.00000  -0.00000
  46        4PX        -0.00000  -0.01204  -0.04551   0.00000  -0.00000
  47        4PY        -0.00000   0.00000   0.00000   0.00182  -0.00000
  48        4PZ        -0.00066  -0.00000  -0.00000   0.00000  -0.00545
                          36        37        38        39        40
  36 4   Cl 1S          2.14409
  37        2S         -0.14872   2.38953
  38        2PX         0.00000   0.00000   2.02605
  39        2PY         0.00000   0.00000   0.00000   2.04779
  40        2PZ         0.00000   0.00000   0.00000   0.00000   2.04747
  41        3S         -0.00202  -0.11996   0.00000   0.00000   0.00000
  42        3PX         0.00000   0.00000  -0.03966   0.00000   0.00000
  43        3PY         0.00000   0.00000   0.00000  -0.05553  -0.00000
  44        3PZ         0.00000   0.00000  -0.00000  -0.00000  -0.05473
  45        4S          0.00625  -0.18346   0.00000   0.00000   0.00000
  46        4PX         0.00000   0.00000  -0.01762   0.00000   0.00000
  47        4PY         0.00000   0.00000   0.00000  -0.02098  -0.00000
  48        4PZ         0.00000   0.00000  -0.00000  -0.00000  -0.02214
                          41        42        43        44        45
  41        3S          0.75093
  42        3PX         0.00000   0.62887
  43        3PY         0.00000  -0.00000   0.73468
  44        3PZ         0.00000  -0.00000   0.00000   0.72066
  45        4S          0.52725   0.00000   0.00000   0.00000   0.76746
  46        4PX         0.00000   0.24959   0.00000  -0.00000   0.00000
  47        4PY         0.00000  -0.00000   0.32851   0.00000   0.00000
  48        4PZ         0.00000   0.00000   0.00000   0.35866   0.00000
                          46        47        48
  46        4PX         0.29426
  47        4PY         0.00000   0.40734
  48        4PZ         0.00000   0.00000   0.47965
     Gross orbital populations:
                           1
   1 1   B  1S          1.98687
   2        2S          0.44874
   3        2PX         0.51574
   4        2PY         0.51574
   5        2PZ         0.16407
   6        3S          0.47498
   7        3PX         0.17883
   8        3PY         0.17883
   9        3PZ         0.23676
  10 2   Cl 1S          1.99861
  11        2S          1.95938
  12        2PX         1.97181
  13        2PY         1.96387
  14        2PZ         1.97006
  15        3S          1.12868
  16        3PX         1.11524
  17        3PY         0.89100
  18        3PZ         1.04593
  19        4S          0.90055
  20        4PX         0.81429
  21        4PY         0.48999
  22        4PZ         0.85040
  23 3   Cl 1S          1.99861
  24        2S          1.95938
  25        2PX         1.96586
  26        2PY         1.96982
  27        2PZ         1.97006
  28        3S          1.12868
  29        3PX         0.94706
  30        3PY         1.05918
  31        3PZ         1.04593
  32        4S          0.90055
  33        4PX         0.57107
  34        4PY         0.73322
  35        4PZ         0.85040
  36 4   Cl 1S          1.99861
  37        2S          1.95938
  38        2PX         1.96586
  39        2PY         1.96982
  40        2PZ         1.97006
  41        3S          1.12868
  42        3PX         0.94706
  43        3PY         1.05918
  44        3PZ         1.04593
  45        4S          0.90055
  46        4PX         0.57107
  47        4PY         0.73322
  48        4PZ         0.85040
          Condensed to atoms (all electrons):
               1          2          3          4
     1  B    3.947629   0.250979   0.250979   0.250979
     2  Cl   0.250979  17.049704  -0.100436  -0.100436
     3  Cl   0.250979  -0.100436  17.049704  -0.100436
     4  Cl   0.250979  -0.100436  -0.100436  17.049704
 Mulliken charges:
               1
     1  B    0.299434
     2  Cl  -0.099811
     3  Cl  -0.099811
     4  Cl  -0.099811
 Sum of Mulliken charges =   0.00000
 Mulliken charges with hydrogens summed into heavy atoms:
               1
     1  B    0.299434
     2  Cl  -0.099811
     3  Cl  -0.099811
     4  Cl  -0.099811
 Electronic spatial extent (au):  <R**2>=            675.1975
 Charge=              0.0000 electrons
 Dipole moment (field-independent basis, Debye):
    X=              0.0000    Y=             -0.0000    Z=             -0.0000  Tot=              0.0000
 Quadrupole moment (field-independent basis, Debye-Ang):
   XX=            -47.9775   YY=            -47.9775   ZZ=            -43.6038
   XY=              0.0000   XZ=             -0.0000   YZ=             -0.0000
 Traceless Quadrupole moment (field-independent basis, Debye-Ang):
   XX=             -1.4579   YY=             -1.4579   ZZ=              2.9158
   XY=              0.0000   XZ=             -0.0000   YZ=             -0.0000
 Octapole moment (field-independent basis, Debye-Ang**2):
  XXX=              0.0000  YYY=             -1.0211  ZZZ=             -0.0000  XYY=             -0.0000
  XXY=              1.0211  XXZ=             -0.0000  XZZ=              0.0000  YZZ=              0.0000
  YYZ=             -0.0000  XYZ=              0.0000
 Hexadecapole moment (field-independent basis, Debye-Ang**3):
 XXXX=           -408.9017 YYYY=           -408.9017 ZZZZ=            -49.5529 XXXY=              0.0000
 XXXZ=              0.0000 YYYX=              0.0000 YYYZ=             -0.0000 ZZZX=              0.0000
 ZZZY=             -0.0000 XXYY=           -136.3006 XXZZ=            -77.7020 YYZZ=            -77.7020
 XXYZ=              0.0000 YYXZ=              0.0000 ZZXY=              0.0000
 N-N= 2.257203339571D+02 E-N=-3.775269570444D+03  KE= 1.395588640833D+03
 Symmetry A1   KE= 8.018280365898D+02
 Symmetry A2   KE= 4.532828501251D+01
 Symmetry B1   KE= 4.586922852061D+02
 Symmetry B2   KE= 8.974003402422D+01
 Orbital energies and kinetic energies (alpha):
                                 1                 2
   1         (E')--O        -104.148468        136.074305
   2         (E')--O        -104.148468        136.074305
   3         (A1')--O       -104.148087        136.083754
   4         (E')--O         -10.545150         22.330169
   5         (E')--O         -10.545150         22.330169
   6         (A1')--O        -10.543908         22.360762
   7         (E')--O          -8.007782         20.329044
   8         (E')--O          -8.007782         20.329044
   9         (A1')--O         -8.007585         20.340130
  10         (A2")--O         -8.003998         20.363004
  11         (E")--O          -8.003960         20.365121
  12         (E")--O          -8.003960         20.365121
  13         (A2')--O         -8.003735         20.359815
  14         (E')--O          -8.003533         20.369405
  15         (E')--O          -8.003533         20.369405
  16         (A1')--O         -7.782451         10.808490
  17         (A1')--O         -1.206074          2.585763
  18         (E')--O          -1.144128          2.940175
  19         (E')--O          -1.144128          2.940175
  20         (A1')--O         -0.711952          2.257775
  21         (E')--O          -0.623210          2.066967
  22         (E')--O          -0.623210          2.066967
  23         (A2")--O         -0.573460          1.842870
  24         (E')--O          -0.503730          2.367280
  25         (E')--O          -0.503730          2.367280
  26         (E")--O          -0.497312          2.299021
  27         (E")--O          -0.497312          2.299021
  28         (A2')--O         -0.477185          2.508982
  29         (A2")--V          0.048931          1.324564
  30         (A1')--V          0.162135          2.353663
  31         (E')--V           0.261304          1.755698
  32         (E')--V           0.261304          1.755698
  33         (E')--V           0.580281          1.949411
  34         (E')--V           0.580281          1.949411
  35         (A2")--V          0.585928          1.792515
  36         (A1')--V          0.648283          2.489727
  37         (E')--V           0.744478          3.485039
  38         (E')--V           0.744478          3.485039
  39         (A1')--V          0.767741          3.482863
  40         (E")--V           0.793681          3.512141
  41         (E")--V           0.793681          3.512141
  42         (E')--V           0.809521          3.018267
  43         (E')--V           0.809521          3.018267
  44         (A2")--V          0.832607          3.286679
  45         (A2')--V          0.886228          3.493145
  46         (A1')--V          0.952246          2.237648
  47         (E')--V           1.048061          3.734355
  48         (E')--V           1.048061          3.734355
 Total kinetic energy from orbitals= 1.395588640833D+03
 1\1\GINC-IISERK51\SP\RHF\3-21G\B1Cl3\GAUSSIAN\16-Jun-2025\0\\# hf/3-21
 g pop=full geom=connectivity\\BCl3 sp\\0,1\B,0,0.,0.,0.\Cl,0,0.,1.7713
 36,0.\Cl,0,-1.534022,-0.885668,0.\Cl,0,1.534022,-0.885668,0.\\Version=
 EM64L-G16RevB.01\State=1-A1'\HF=-1396.5331129\RMSD=2.190e-09\Dipole=0.
 ,0.,0.\Quadrupole=-1.0839161,-1.0839161,2.1678323,0.,0.,0.\PG=D03H [O(
 B1),3C2(Cl1)]\\@


 HE THAT RISETH LATE MUST TROT ALL DAY.

                  -- BENJAMIN FRANKLIN
 Job cpu time:       0 days  0 hours  0 minutes  0.4 seconds.
 Elapsed time:       0 days  0 hours  0 minutes  0.4 seconds.
 File lengths (MBytes):  RWF=      6 Int=      0 D2E=      0 Chk=      1 Scr=      1
 Normal termination of Gaussian 16 at Mon Jun 16 21:14:46 2025.
