 Entering Gaussian System, Link 0=g16
 Input=/home/gaussian/Documents/Summer_Internship/Acid_Base_adduct/Acid/BCl3/neutral/BCl3_opt.com
 Output=/home/gaussian/Documents/Summer_Internship/Acid_Base_adduct/Acid/BCl3/neutral/BCl3_opt.log
 Initial command:
 /usr/local/g16/l1.exe "/home/gaussian/tmp/Gau-78580.inp" -scrdir="/home/gaussian/tmp/"
 Entering Link 1 = /usr/local/g16/l1.exe PID=     78583.
  
 Copyright (c) 1988-2017, Gaussian, Inc.  All Rights Reserved.
  
 This is part of the Gaussian(R) 16 program.  It is based on
 the Gaussian(R) 09 system (copyright 2009, Gaussian, Inc.),
 the Gaussian(R) 03 system (copyright 2003, Gaussian, Inc.),
 the Gaussian(R) 98 system (copyright 1998, Gaussian, Inc.),
 the Gaussian(R) 94 system (copyright 1995, Gaussian, Inc.),
 the Gaussian 92(TM) system (copyright 1992, Gaussian, Inc.),
 the Gaussian 90(TM) system (copyright 1990, Gaussian, Inc.),
 the Gaussian 88(TM) system (copyright 1988, Gaussian, Inc.),
 the Gaussian 86(TM) system (copyright 1986, Carnegie Mellon
 University), and the Gaussian 82(TM) system (copyright 1983,
 Carnegie Mellon University). Gaussian is a federally registered
 trademark of Gaussian, Inc.
  
 This software contains proprietary and confidential information,
 including trade secrets, belonging to Gaussian, Inc.
  
 This software is provided under written license and may be
 used, copied, transmitted, or stored only in accord with that
 written license.
  
 The following legend is applicable only to US Government
 contracts under FAR:
  
                    RESTRICTED RIGHTS LEGEND
  
 Use, reproduction and disclosure by the US Government is
 subject to restrictions as set forth in subparagraphs (a)
 and (c) of the Commercial Computer Software - Restricted
 Rights clause in FAR 52.227-19.
  
 Gaussian, Inc.
 340 Quinnipiac St., Bldg. 40, Wallingford CT 06492
  
  
 ---------------------------------------------------------------
 Warning -- This program may not be used in any manner that
 competes with the business of Gaussian, Inc. or will provide
 assistance to any competitor of Gaussian, Inc.  The licensee
 of this program is prohibited from giving any competitor of
 Gaussian, Inc. access to this program.  By using this program,
 the user acknowledges that Gaussian, Inc. is engaged in the
 business of creating and licensing software in the field of
 computational chemistry and represents and warrants to the
 licensee that it is not a competitor of Gaussian, Inc. and that
 it will not use this program in any manner prohibited above.
 ---------------------------------------------------------------
  

 Cite this work as:
 Gaussian 16, Revision B.01,
 M. J. Frisch, G. W. Trucks, H. B. Schlegel, G. E. Scuseria, 
 M. A. Robb, J. R. Cheeseman, G. Scalmani, V. Barone, 
 G. A. Petersson, H. Nakatsuji, X. Li, M. Caricato, A. V. Marenich, 
 J. Bloino, B. G. Janesko, R. Gomperts, B. Mennucci, H. P. Hratchian, 
 J. V. Ortiz, A. F. Izmaylov, J. L. Sonnenberg, D. Williams-Young, 
 F. Ding, F. Lipparini, F. Egidi, J. Goings, B. Peng, A. Petrone, 
 T. Henderson, D. Ranasinghe, V. G. Zakrzewski, J. Gao, N. Rega, 
 G. Zheng, W. Liang, M. Hada, M. Ehara, K. Toyota, R. Fukuda, 
 J. Hasegawa, M. Ishida, T. Nakajima, Y. Honda, O. Kitao, H. Nakai, 
 T. Vreven, K. Throssell, J. A. Montgomery, Jr., J. E. Peralta, 
 F. Ogliaro, M. J. Bearpark, J. J. Heyd, E. N. Brothers, K. N. Kudin, 
 V. N. Staroverov, T. A. Keith, R. Kobayashi, J. Normand, 
 K. Raghavachari, A. P. Rendell, J. C. Burant, S. S. Iyengar, 
 J. Tomasi, M. Cossi, J. M. Millam, M. Klene, C. Adamo, R. Cammi, 
 J. W. Ochterski, R. L. Martin, K. Morokuma, O. Farkas, 
 J. B. Foresman, and D. J. Fox, Gaussian, Inc., Wallingford CT, 2016.
 
 ******************************************
 Gaussian 16:  EM64L-G16RevB.01 20-Dec-2017
                16-Jun-2025 
 ******************************************
 %chk=BCl3_opt.chk
 ----------------------------------------------
 # opt freq hf/3-21g pop=full geom=connectivity
 ----------------------------------------------
 1/18=20,19=15,38=1,57=2/1,3;
 2/9=110,12=2,17=6,18=5,40=1/2;
 3/5=5,11=9,25=1,30=1,71=1/1,2,3;
 4//1;
 5/5=2,38=5/2;
 6/7=3,28=1/1;
 7//1,2,3,16;
 1/18=20,19=15/3(2);
 2/9=110/2;
 99//99;
 2/9=110/2;
 3/5=5,11=9,25=1,30=1,71=1/1,2,3;
 4/5=5,16=3,69=1/1;
 5/5=2,38=5/2;
 7//1,2,3,16;
 1/18=20,19=15/3(-5);
 2/9=110/2;
 6/7=3,19=2,28=1/1;
 99/9=1/99;
 --------
 BCl3 opt
 --------
 Symbolic Z-matrix:
 Charge =  0 Multiplicity = 1
 B                     0.84683   0.05459   0. 
 Cl                   -0.08817   1.67406   0. 
 Cl                   -0.08817  -1.56487   0. 
 Cl                    2.71683   0.05459   0. 
 

 GradGradGradGradGradGradGradGradGradGradGradGradGradGradGradGradGradGrad
 Berny optimization.
 Initialization pass.
                           ----------------------------
                           !    Initial Parameters    !
                           ! (Angstroms and Degrees)  !
 --------------------------                            --------------------------
 ! Name  Definition              Value          Derivative Info.                !
 --------------------------------------------------------------------------------
 ! R1    R(1,2)                  1.87           estimate D2E/DX2                !
 ! R2    R(1,3)                  1.87           estimate D2E/DX2                !
 ! R3    R(1,4)                  1.87           estimate D2E/DX2                !
 ! A1    A(2,1,3)              120.0            estimate D2E/DX2                !
 ! A2    A(2,1,4)              120.0            estimate D2E/DX2                !
 ! A3    A(3,1,4)              120.0            estimate D2E/DX2                !
 ! D1    D(2,1,4,3)            180.0            estimate D2E/DX2                !
 --------------------------------------------------------------------------------
 Trust Radius=3.00D-01 FncErr=1.00D-07 GrdErr=1.00D-07 EigMax=2.50D+02 EigMin=1.00D-04
 Number of steps in this run=     20 maximum allowed number of steps=    100.
 GradGradGradGradGradGradGradGradGradGradGradGradGradGradGradGradGradGrad

                          Input orientation:                          
 ---------------------------------------------------------------------
 Center     Atomic      Atomic             Coordinates (Angstroms)
 Number     Number       Type             X           Y           Z
 ---------------------------------------------------------------------
      1          5           0        0.846831    0.054593    0.000000
      2         17           0       -0.088169    1.674060    0.000000
      3         17           0       -0.088169   -1.564875    0.000000
      4         17           0        2.716831    0.054593    0.000000
 ---------------------------------------------------------------------
                    Distance matrix (angstroms):
                    1          2          3          4
     1  B    0.000000
     2  Cl   1.870000   0.000000
     3  Cl   1.870000   3.238935   0.000000
     4  Cl   1.870000   3.238935   3.238935   0.000000
 Stoichiometry    BCl3
 Framework group  D3H[O(B),3C2(Cl)]
 Deg. of freedom     1
 Full point group                 D3H     NOp  12
 Largest Abelian subgroup         C2V     NOp   4
 Largest concise Abelian subgroup C2      NOp   2
                         Standard orientation:                         
 ---------------------------------------------------------------------
 Center     Atomic      Atomic             Coordinates (Angstroms)
 Number     Number       Type             X           Y           Z
 ---------------------------------------------------------------------
      1          5           0        0.000000    0.000000    0.000000
      2         17           0       -0.000000    1.870000    0.000000
      3         17           0       -1.619468   -0.935000    0.000000
      4         17           0        1.619468   -0.935000    0.000000
 ---------------------------------------------------------------------
 Rotational constants (GHZ):           2.7552521           2.7552521           1.3776261
 Standard basis: 3-21G (6D, 7F)
 There are    22 symmetry adapted cartesian basis functions of A1  symmetry.
 There are     3 symmetry adapted cartesian basis functions of A2  symmetry.
 There are    15 symmetry adapted cartesian basis functions of B1  symmetry.
 There are     8 symmetry adapted cartesian basis functions of B2  symmetry.
 There are    22 symmetry adapted basis functions of A1  symmetry.
 There are     3 symmetry adapted basis functions of A2  symmetry.
 There are    15 symmetry adapted basis functions of B1  symmetry.
 There are     8 symmetry adapted basis functions of B2  symmetry.
    48 basis functions,    96 primitive gaussians,    48 cartesian basis functions
    28 alpha electrons       28 beta electrons
       nuclear repulsion energy       213.8109916632 Hartrees.
 NAtoms=    4 NActive=    4 NUniq=    2 SFac= 4.00D+00 NAtFMM=   60 NAOKFM=F Big=F
 Integral buffers will be    131072 words long.
 Raffenetti 1 integral format.
 Two-electron integral symmetry is turned on.
 One-electron integrals computed using PRISM.
 NBasis=    48 RedAO= T EigKep=  2.38D-02  NBF=    22     3    15     8
 NBsUse=    48 1.00D-06 EigRej= -1.00D+00 NBFU=    22     3    15     8
 ExpMin= 1.24D-01 ExpMax= 1.38D+03 ExpMxC= 1.38D+03 IAcc=3 IRadAn=         5 AccDes= 0.00D+00
 Harris functional with IExCor=  205 and IRadAn=       5 diagonalized for initial guess.
 HarFok:  IExCor=  205 AccDes= 0.00D+00 IRadAn=         5 IDoV= 1 UseB2=F ITyADJ=14
 ICtDFT=  3500011 ScaDFX=  1.000000  1.000000  1.000000  1.000000
 FoFCou: FMM=F IPFlag=           0 FMFlag=      100000 FMFlg1=           0
         NFxFlg=           0 DoJE=T BraDBF=F KetDBF=T FulRan=T
         wScrn=  0.000000 ICntrl=       500 IOpCl=  0 I1Cent=   200000004 NGrid=           0
         NMat0=    1 NMatS0=      1 NMatT0=    0 NMatD0=    1 NMtDS0=    0 NMtDT0=    0
 Petite list used in FoFCou.
 Initial guess orbital symmetries:
       Occupied  (E') (E') (A1') (E') (E') (A1') (E') (E') (A1')
                 (A2') (A2") (E") (E") (E') (E') (A1') (A1') (E')
                 (E') (A1') (E') (E') (A2") (E') (E') (E") (E")
                 (A2')
       Virtual   (A2") (A1') (E') (E') (E') (E') (A2") (A1') (E')
                 (E') (E") (E") (A1') (E') (E') (A2") (A2') (E')
                 (E') (A1')
 The electronic state of the initial guess is 1-A1'.
 Keep R1 ints in memory in symmetry-blocked form, NReq=1505423.
 Requested convergence on RMS density matrix=1.00D-08 within 128 cycles.
 Requested convergence on MAX density matrix=1.00D-06.
 Requested convergence on             energy=1.00D-06.
 No special actions if energy rises.
 SCF Done:  E(RHF) =  -1396.52120213     A.U. after   10 cycles
            NFock= 10  Conv=0.20D-08     -V/T= 2.0010

 **********************************************************************

            Population analysis using the SCF Density.

 **********************************************************************

 Orbital symmetries:
       Occupied  (E') (E') (A1') (E') (E') (A1') (E') (E') (A1')
                 (A2") (E") (E") (A2') (E') (E') (A1') (A1') (E')
                 (E') (A1') (E') (E') (A2") (E') (E') (E") (E")
                 (A2')
       Virtual   (A2") (A1') (E') (E') (A2") (E') (E') (A1') (E')
                 (E') (A1') (E") (E") (E') (E') (A2") (A2') (A1')
                 (E') (E')
 The electronic state is 1-A1'.
 Alpha  occ. eigenvalues -- -104.15472-104.15472-104.15444 -10.54857 -10.54857
 Alpha  occ. eigenvalues --  -10.54762  -8.01130  -8.01130  -8.01103  -8.00768
 Alpha  occ. eigenvalues --   -8.00763  -8.00763  -8.00746  -8.00725  -8.00725
 Alpha  occ. eigenvalues --   -7.81344  -1.17964  -1.13282  -1.13282  -0.70582
 Alpha  occ. eigenvalues --   -0.60416  -0.60416  -0.55658  -0.50112  -0.50112
 Alpha  occ. eigenvalues --   -0.49808  -0.49808  -0.48295
 Alpha virt. eigenvalues --    0.02725   0.10125   0.21698   0.21698   0.58168
 Alpha virt. eigenvalues --    0.58172   0.58172   0.65663   0.73211   0.73211
 Alpha virt. eigenvalues --    0.77952   0.78779   0.78779   0.82310   0.82310
 Alpha virt. eigenvalues --    0.83203   0.87988   0.96763   1.01297   1.01297
     Molecular Orbital Coefficients:
                           1         2         3         4         5
                        (E')--O   (E')--O  (A1')--O   (E')--O   (E')--O
     Eigenvalues --  -104.15472-104.15472-104.15444 -10.54857 -10.54857
   1 1   B  1S          0.00000  -0.00000   0.00009   0.00000  -0.00000
   2        2S          0.00000  -0.00000   0.00124   0.00000  -0.00000
   3        2PX        -0.00027   0.00000   0.00000   0.00160   0.00000
   4        2PY         0.00000   0.00027   0.00000   0.00000  -0.00160
   5        2PZ         0.00000   0.00000   0.00000   0.00000   0.00000
   6        3S          0.00000   0.00000  -0.00791   0.00000   0.00000
   7        3PX         0.00629   0.00000   0.00000  -0.03643   0.00000
   8        3PY         0.00000  -0.00629  -0.00000   0.00000   0.03643
   9        3PZ         0.00000   0.00000   0.00000   0.00000   0.00000
  10 2   Cl 1S          0.00000   0.80497   0.56921   0.00000  -0.24976
  11        2S          0.00000   0.04340   0.03060   0.00000   0.80243
  12        2PX         0.00000   0.00000   0.00000   0.00001   0.00000
  13        2PY         0.00000  -0.00023  -0.00009   0.00000  -0.00764
  14        2PZ         0.00000   0.00000   0.00000   0.00000   0.00000
  15        3S          0.00000  -0.01629  -0.01083   0.00000   0.12008
  16        3PX         0.00003   0.00000   0.00000  -0.00026   0.00000
  17        3PY         0.00000   0.00089   0.00028   0.00000  -0.00648
  18        3PZ         0.00000   0.00000   0.00000   0.00000   0.00000
  19        4S          0.00000   0.01267   0.00747   0.00000  -0.07400
  20        4PX        -0.00104   0.00000   0.00000   0.00609   0.00000
  21        4PY         0.00000  -0.00380  -0.00194   0.00000   0.02219
  22        4PZ         0.00000   0.00000   0.00000   0.00000   0.00000
  23 3   Cl 1S          0.69712  -0.40248   0.56921  -0.21630   0.12488
  24        2S          0.03758  -0.02170   0.03060   0.69492  -0.40121
  25        2PX         0.00017  -0.00010   0.00008   0.00573  -0.00331
  26        2PY         0.00010  -0.00006   0.00004   0.00331  -0.00192
  27        2PZ         0.00000   0.00000   0.00000   0.00000   0.00000
  28        3S         -0.01410   0.00814  -0.01083   0.10399  -0.06004
  29        3PX        -0.00066   0.00040  -0.00024   0.00479  -0.00292
  30        3PY        -0.00040   0.00020  -0.00014   0.00292  -0.00142
  31        3PZ         0.00000   0.00000   0.00000   0.00000   0.00000
  32        4S          0.01098  -0.00634   0.00747  -0.06408   0.03700
  33        4PX         0.00259  -0.00210   0.00168  -0.01512   0.01224
  34        4PY         0.00210  -0.00017   0.00097  -0.01224   0.00098
  35        4PZ         0.00000   0.00000   0.00000   0.00000   0.00000
  36 4   Cl 1S         -0.69712  -0.40248   0.56921   0.21630   0.12488
  37        2S         -0.03758  -0.02170   0.03060  -0.69492  -0.40121
  38        2PX         0.00017   0.00010  -0.00008   0.00573   0.00331
  39        2PY        -0.00010  -0.00006   0.00004  -0.00331  -0.00192
  40        2PZ         0.00000   0.00000   0.00000   0.00000   0.00000
  41        3S          0.01410   0.00814  -0.01083  -0.10399  -0.06004
  42        3PX        -0.00066  -0.00040   0.00024   0.00479   0.00292
  43        3PY         0.00040   0.00020  -0.00014  -0.00292  -0.00142
  44        3PZ         0.00000   0.00000   0.00000   0.00000   0.00000
  45        4S         -0.01098  -0.00634   0.00747   0.06408   0.03700
  46        4PX         0.00259   0.00210  -0.00168  -0.01512  -0.01224
  47        4PY        -0.00210  -0.00017   0.00097   0.01224   0.00098
  48        4PZ         0.00000   0.00000   0.00000   0.00000   0.00000
                           6         7         8         9        10
                       (A1')--O   (E')--O   (E')--O  (A1')--O  (A2")--O
     Eigenvalues --   -10.54762  -8.01130  -8.01130  -8.01103  -8.00768
   1 1   B  1S         -0.00087  -0.00000   0.00000   0.00215   0.00000
   2        2S         -0.00732  -0.00000   0.00000   0.00177   0.00000
   3        2PX         0.00000   0.00000   0.00182   0.00000   0.00000
   4        2PY         0.00000   0.00182   0.00000   0.00000   0.00000
   5        2PZ         0.00000   0.00000   0.00000   0.00000  -0.00140
   6        3S          0.04673   0.00000   0.00000  -0.02196   0.00000
   7        3PX         0.00000   0.00000  -0.01294   0.00000   0.00000
   8        3PY        -0.00000  -0.01294   0.00000  -0.00000   0.00000
   9        3PZ         0.00000   0.00000   0.00000   0.00000   0.00892
  10 2   Cl 1S         -0.17668  -0.00293   0.00000  -0.00199   0.00000
  11        2S          0.56788   0.01020   0.00000   0.00681   0.00000
  12        2PX         0.00000   0.00000   0.01241   0.00000   0.00000
  13        2PY        -0.00567   0.79444   0.00000   0.56206   0.00000
  14        2PZ         0.00000   0.00000   0.00000   0.00000   0.56247
  15        3S          0.08129  -0.00683   0.00000  -0.00254   0.00000
  16        3PX         0.00000   0.00000   0.00143   0.00000   0.00000
  17        3PY        -0.00272   0.06826   0.00000   0.04702   0.00000
  18        3PZ         0.00000   0.00000   0.00000   0.00000   0.04592
  19        4S         -0.04425   0.01512   0.00000   0.00712   0.00000
  20        4PX         0.00000   0.00000   0.00033   0.00000   0.00000
  21        4PY         0.01172  -0.02890   0.00000  -0.01819   0.00000
  22        4PZ         0.00000   0.00000   0.00000   0.00000  -0.01567
  23 3   Cl 1S         -0.17668   0.00147   0.00254  -0.00199   0.00000
  24        2S          0.56788  -0.00510  -0.00883   0.00681   0.00000
  25        2PX         0.00491   0.33863   0.59893  -0.48676   0.00000
  26        2PY         0.00283   0.20792   0.33863  -0.28103   0.00000
  27        2PZ         0.00000   0.00000   0.00000   0.00000   0.56247
  28        3S          0.08129   0.00341   0.00591  -0.00254   0.00000
  29        3PX         0.00235   0.02894   0.05155  -0.04072   0.00000
  30        3PY         0.00136   0.01813   0.02894  -0.02351   0.00000
  31        3PZ         0.00000   0.00000   0.00000   0.00000   0.04592
  32        4S         -0.04425  -0.00756  -0.01310   0.00712   0.00000
  33        4PX        -0.01015  -0.01266  -0.02159   0.01575   0.00000
  34        4PY        -0.00586  -0.00697  -0.01266   0.00909   0.00000
  35        4PZ         0.00000   0.00000   0.00000   0.00000  -0.01567
  36 4   Cl 1S         -0.17668   0.00147  -0.00254  -0.00199   0.00000
  37        2S          0.56788  -0.00510   0.00883   0.00681   0.00000
  38        2PX        -0.00491  -0.33863   0.59893   0.48676   0.00000
  39        2PY         0.00283   0.20792  -0.33863  -0.28103   0.00000
  40        2PZ         0.00000   0.00000   0.00000   0.00000   0.56247
  41        3S          0.08129   0.00341  -0.00591  -0.00254   0.00000
  42        3PX        -0.00235  -0.02894   0.05155   0.04072   0.00000
  43        3PY         0.00136   0.01813  -0.02894  -0.02351   0.00000
  44        3PZ         0.00000   0.00000   0.00000   0.00000   0.04592
  45        4S         -0.04425  -0.00756   0.01310   0.00712   0.00000
  46        4PX         0.01015   0.01266  -0.02159  -0.01575   0.00000
  47        4PY        -0.00586  -0.00697   0.01266   0.00909   0.00000
  48        4PZ         0.00000   0.00000   0.00000   0.00000  -0.01567
                          11        12        13        14        15
                        (E")--O   (E")--O  (A2')--O   (E')--O   (E')--O
     Eigenvalues --    -8.00763  -8.00763  -8.00746  -8.00725  -8.00725
   1 1   B  1S          0.00000   0.00000   0.00000   0.00000   0.00000
   2        2S          0.00000   0.00000   0.00000  -0.00000   0.00000
   3        2PX         0.00000   0.00000   0.00000   0.00000  -0.00157
   4        2PY         0.00000   0.00000   0.00000  -0.00157   0.00000
   5        2PZ        -0.00000   0.00000   0.00000   0.00000   0.00000
   6        3S          0.00000   0.00000   0.00000   0.00000   0.00000
   7        3PX         0.00000   0.00000  -0.00000   0.00000   0.01325
   8        3PY         0.00000   0.00000   0.00000   0.01325   0.00000
   9        3PZ         0.00000   0.00000   0.00000   0.00000   0.00000
  10 2   Cl 1S          0.00000   0.00000   0.00000   0.00004   0.00000
  11        2S          0.00000   0.00000   0.00000  -0.00009   0.00000
  12        2PX         0.00000   0.00000   0.56241   0.00000   0.79551
  13        2PY         0.00000   0.00000   0.00000  -0.01257   0.00000
  14        2PZ         0.79553   0.00000   0.00000   0.00000   0.00000
  15        3S          0.00000   0.00000   0.00000   0.00072   0.00000
  16        3PX         0.00000   0.00000   0.04634   0.00000   0.06434
  17        3PY         0.00000   0.00000   0.00000  -0.00060   0.00000
  18        3PZ         0.06448   0.00000   0.00000   0.00000   0.00000
  19        4S          0.00000   0.00000   0.00000  -0.00699   0.00000
  20        4PX         0.00000   0.00000  -0.01553   0.00000  -0.02129
  21        4PY         0.00000   0.00000   0.00000   0.00314   0.00000
  22        4PZ        -0.01924   0.00000   0.00000   0.00000   0.00000
  23 3   Cl 1S          0.00000   0.00000   0.00000  -0.00002  -0.00003
  24        2S          0.00000   0.00000  -0.00000   0.00004   0.00008
  25        2PX         0.00000   0.00000  -0.28120  -0.34991   0.18945
  26        2PY         0.00000   0.00000   0.48706   0.59349  -0.34991
  27        2PZ        -0.39776   0.68895   0.00000   0.00000   0.00000
  28        3S          0.00000   0.00000   0.00000  -0.00036  -0.00062
  29        3PX         0.00000   0.00000  -0.02317  -0.02812   0.01563
  30        3PY         0.00000   0.00000   0.04013   0.04811  -0.02812
  31        3PZ        -0.03224   0.05584   0.00000   0.00000   0.00000
  32        4S          0.00000   0.00000  -0.00000   0.00349   0.00605
  33        4PX         0.00000   0.00000   0.00776   0.01058  -0.00297
  34        4PY         0.00000   0.00000  -0.01345  -0.01519   0.01058
  35        4PZ         0.00962  -0.01666   0.00000   0.00000   0.00000
  36 4   Cl 1S          0.00000   0.00000  -0.00000  -0.00002   0.00003
  37        2S          0.00000   0.00000   0.00000   0.00004  -0.00008
  38        2PX         0.00000   0.00000  -0.28120   0.34991   0.18945
  39        2PY         0.00000   0.00000  -0.48706   0.59349   0.34991
  40        2PZ        -0.39776  -0.68895   0.00000   0.00000   0.00000
  41        3S          0.00000   0.00000  -0.00000  -0.00036   0.00062
  42        3PX         0.00000   0.00000  -0.02317   0.02812   0.01563
  43        3PY         0.00000   0.00000  -0.04013   0.04811   0.02812
  44        3PZ        -0.03224  -0.05584   0.00000   0.00000   0.00000
  45        4S          0.00000   0.00000   0.00000   0.00349  -0.00605
  46        4PX         0.00000   0.00000   0.00776  -0.01058  -0.00297
  47        4PY         0.00000   0.00000   0.01345  -0.01519  -0.01058
  48        4PZ         0.00962   0.01666   0.00000   0.00000   0.00000
                          16        17        18        19        20
                       (A1')--O  (A1')--O   (E')--O   (E')--O  (A1')--O
     Eigenvalues --    -7.81344  -1.17964  -1.13282  -1.13282  -0.70582
   1 1   B  1S          0.98864  -0.09044   0.00000  -0.00000  -0.15756
   2        2S          0.08812   0.13061   0.00000   0.00000   0.22303
   3        2PX         0.00000   0.00000  -0.12220   0.00000   0.00000
   4        2PY        -0.00000  -0.00000   0.00000   0.12220  -0.00000
   5        2PZ         0.00000   0.00000   0.00000   0.00000   0.00000
   6        3S         -0.05076   0.08936   0.00000   0.00000   0.42197
   7        3PX         0.00000   0.00000   0.01927   0.00000   0.00000
   8        3PY         0.00000   0.00000   0.00000  -0.01927  -0.00000
   9        3PZ         0.00000   0.00000   0.00000   0.00000   0.00000
  10 2   Cl 1S         -0.00011   0.04212   0.00000   0.06442  -0.01984
  11        2S          0.00053  -0.24718   0.00000  -0.37889   0.11946
  12        2PX         0.00000   0.00000   0.00512   0.00000   0.00000
  13        2PY        -0.00192   0.02926   0.00000   0.02785   0.11463
  14        2PZ         0.00000   0.00000   0.00000   0.00000   0.00000
  15        3S         -0.00302   0.31492   0.00000   0.47493  -0.14696
  16        3PX         0.00000   0.00000  -0.01106   0.00000   0.00000
  17        3PY         0.00066  -0.05993   0.00000  -0.05529  -0.24613
  18        3PZ         0.00000   0.00000   0.00000   0.00000   0.00000
  19        4S          0.01167   0.24401   0.00000   0.42461  -0.22354
  20        4PX         0.00000   0.00000  -0.00670   0.00000   0.00000
  21        4PY        -0.00471  -0.03060   0.00000  -0.05384  -0.11976
  22        4PZ         0.00000   0.00000   0.00000   0.00000   0.00000
  23 3   Cl 1S         -0.00011   0.04212   0.05579  -0.03221  -0.01984
  24        2S          0.00053  -0.24718  -0.32813   0.18944   0.11946
  25        2PX         0.00166  -0.02534  -0.01961   0.01428  -0.09927
  26        2PY         0.00096  -0.01463  -0.01428   0.00312  -0.05732
  27        2PZ         0.00000   0.00000   0.00000   0.00000   0.00000
  28        3S         -0.00302   0.31492   0.41130  -0.23747  -0.14696
  29        3PX        -0.00057   0.05190   0.03870  -0.02873   0.21315
  30        3PY        -0.00033   0.02997   0.02873  -0.00552   0.12306
  31        3PZ         0.00000   0.00000   0.00000   0.00000   0.00000
  32        4S          0.01167   0.24401   0.36772  -0.21230  -0.22354
  33        4PX         0.00408   0.02650   0.03870  -0.02622   0.10372
  34        4PY         0.00236   0.01530   0.02622  -0.00843   0.05988
  35        4PZ         0.00000   0.00000   0.00000   0.00000   0.00000
  36 4   Cl 1S         -0.00011   0.04212  -0.05579  -0.03221  -0.01984
  37        2S          0.00053  -0.24718   0.32813   0.18944   0.11946
  38        2PX        -0.00166   0.02534  -0.01961  -0.01428   0.09927
  39        2PY         0.00096  -0.01463   0.01428   0.00312  -0.05732
  40        2PZ         0.00000   0.00000   0.00000   0.00000   0.00000
  41        3S         -0.00302   0.31492  -0.41130  -0.23747  -0.14696
  42        3PX         0.00057  -0.05190   0.03870   0.02873  -0.21315
  43        3PY        -0.00033   0.02997  -0.02873  -0.00552   0.12306
  44        3PZ         0.00000   0.00000   0.00000   0.00000   0.00000
  45        4S          0.01167   0.24401  -0.36772  -0.21230  -0.22354
  46        4PX        -0.00408  -0.02650   0.03870   0.02622  -0.10372
  47        4PY         0.00236   0.01530  -0.02622  -0.00843   0.05988
  48        4PZ         0.00000   0.00000   0.00000   0.00000   0.00000
                          21        22        23        24        25
                        (E')--O   (E')--O  (A2")--O   (E')--O   (E')--O
     Eigenvalues --    -0.60416  -0.60416  -0.55658  -0.50112  -0.50112
   1 1   B  1S          0.00000   0.00000   0.00000   0.00000   0.00000
   2        2S          0.00000  -0.00000   0.00000   0.00000   0.00000
   3        2PX         0.29034   0.00000   0.00000  -0.12990   0.00000
   4        2PY         0.00000  -0.29034   0.00000   0.00000  -0.12990
   5        2PZ         0.00000   0.00000   0.16350   0.00000   0.00000
   6        3S          0.00000   0.00000   0.00000   0.00000  -0.00000
   7        3PX         0.20470   0.00000   0.00000   0.08138   0.00000
   8        3PY         0.00000  -0.20470   0.00000   0.00000   0.08138
   9        3PZ         0.00000   0.00000   0.15906   0.00000   0.00000
  10 2   Cl 1S          0.00000   0.01446   0.00000   0.00000   0.00295
  11        2S          0.00000  -0.08797   0.00000   0.00000  -0.01769
  12        2PX        -0.11100   0.00000   0.00000  -0.19638   0.00000
  13        2PY         0.00000  -0.16479   0.00000   0.00000  -0.12374
  14        2PZ         0.00000   0.00000  -0.14709   0.00000   0.00000
  15        3S          0.00000   0.10106   0.00000   0.00000   0.04192
  16        3PX         0.24468   0.00000   0.00000   0.43032   0.00000
  17        3PY         0.00000   0.35599   0.00000   0.00000   0.26749
  18        3PZ         0.00000   0.00000   0.32150   0.00000   0.00000
  19        4S          0.00000   0.22052   0.00000   0.00000  -0.04979
  20        4PX         0.15093   0.00000   0.00000   0.34664   0.00000
  21        4PY         0.00000   0.20057   0.00000   0.00000   0.25260
  22        4PZ         0.00000   0.00000   0.23745   0.00000   0.00000
  23 3   Cl 1S          0.01252  -0.00723   0.00000  -0.00255  -0.00147
  24        2S         -0.07619   0.04399   0.00000   0.01532   0.00884
  25        2PX         0.09584  -0.11942   0.00000  -0.14190   0.03145
  26        2PY         0.11942   0.04206   0.00000   0.03145  -0.17822
  27        2PZ         0.00000   0.00000  -0.14709   0.00000   0.00000
  28        3S          0.08752  -0.05053   0.00000  -0.03631  -0.02096
  29        3PX        -0.20582   0.26010   0.00000   0.30820  -0.07051
  30        3PY        -0.26010  -0.09451   0.00000  -0.07051   0.38961
  31        3PZ         0.00000   0.00000   0.32150   0.00000   0.00000
  32        4S          0.19098  -0.11026   0.00000   0.04312   0.02490
  33        4PX        -0.11269   0.15220   0.00000   0.27611  -0.04072
  34        4PY        -0.15220  -0.06306   0.00000  -0.04072   0.32313
  35        4PZ         0.00000   0.00000   0.23745   0.00000   0.00000
  36 4   Cl 1S         -0.01252  -0.00723   0.00000   0.00255  -0.00147
  37        2S          0.07619   0.04399   0.00000  -0.01532   0.00884
  38        2PX         0.09584   0.11942   0.00000  -0.14190  -0.03145
  39        2PY        -0.11942   0.04206   0.00000  -0.03145  -0.17822
  40        2PZ         0.00000   0.00000  -0.14709   0.00000   0.00000
  41        3S         -0.08752  -0.05053   0.00000   0.03631  -0.02096
  42        3PX        -0.20582  -0.26010   0.00000   0.30820   0.07051
  43        3PY         0.26010  -0.09451   0.00000   0.07051   0.38961
  44        3PZ         0.00000   0.00000   0.32150   0.00000   0.00000
  45        4S         -0.19098  -0.11026   0.00000  -0.04312   0.02490
  46        4PX        -0.11269  -0.15220   0.00000   0.27611   0.04072
  47        4PY         0.15220  -0.06306   0.00000   0.04072   0.32313
  48        4PZ         0.00000   0.00000   0.23745   0.00000   0.00000
                          26        27        28        29        30
                        (E")--O   (E")--O  (A2')--O  (A2")--V  (A1')--V
     Eigenvalues --    -0.49808  -0.49808  -0.48295   0.02725   0.10125
   1 1   B  1S          0.00000   0.00000   0.00000   0.00000  -0.20248
   2        2S          0.00000   0.00000   0.00000   0.00000   0.16418
   3        2PX         0.00000   0.00000  -0.00000   0.00000   0.00000
   4        2PY         0.00000   0.00000   0.00000   0.00000   0.00000
   5        2PZ         0.00000   0.00000   0.00000   0.46625   0.00000
   6        3S          0.00000   0.00000   0.00000   0.00000   1.91337
   7        3PX         0.00000   0.00000  -0.00000   0.00000   0.00000
   8        3PY         0.00000   0.00000   0.00000   0.00000  -0.00000
   9        3PZ         0.00000   0.00000   0.00000   0.79277   0.00000
  10 2   Cl 1S          0.00000   0.00000   0.00000   0.00000  -0.01622
  11        2S          0.00000   0.00000   0.00000   0.00000   0.10205
  12        2PX         0.00000   0.00000  -0.16974   0.00000   0.00000
  13        2PY         0.00000   0.00000   0.00000   0.00000  -0.11670
  14        2PZ         0.00000  -0.23128   0.00000   0.08093   0.00000
  15        3S          0.00000   0.00000   0.00000   0.00000  -0.10876
  16        3PX         0.00000   0.00000   0.37364   0.00000   0.00000
  17        3PY         0.00000   0.00000   0.00000   0.00000   0.24961
  18        3PZ         0.00000   0.50311   0.00000  -0.17744   0.00000
  19        4S          0.00000   0.00000   0.00000   0.00000  -0.49086
  20        4PX         0.00000   0.00000   0.30660   0.00000   0.00000
  21        4PY         0.00000   0.00000   0.00000   0.00000   0.59973
  22        4PZ         0.00000   0.43333   0.00000  -0.28465   0.00000
  23 3   Cl 1S          0.00000   0.00000  -0.00000   0.00000  -0.01622
  24        2S          0.00000   0.00000   0.00000   0.00000   0.10205
  25        2PX         0.00000   0.00000   0.08487   0.00000   0.10107
  26        2PY         0.00000   0.00000  -0.14700   0.00000   0.05835
  27        2PZ        -0.20030   0.11564   0.00000   0.08093   0.00000
  28        3S          0.00000   0.00000   0.00000   0.00000  -0.10876
  29        3PX         0.00000   0.00000  -0.18682   0.00000  -0.21617
  30        3PY         0.00000   0.00000   0.32358   0.00000  -0.12481
  31        3PZ         0.43571  -0.25155   0.00000  -0.17744   0.00000
  32        4S          0.00000   0.00000  -0.00000   0.00000  -0.49086
  33        4PX         0.00000   0.00000  -0.15330   0.00000  -0.51938
  34        4PY         0.00000   0.00000   0.26552   0.00000  -0.29986
  35        4PZ         0.37527  -0.21666   0.00000  -0.28465   0.00000
  36 4   Cl 1S          0.00000   0.00000   0.00000   0.00000  -0.01622
  37        2S          0.00000   0.00000  -0.00000   0.00000   0.10205
  38        2PX         0.00000   0.00000   0.08487   0.00000  -0.10107
  39        2PY         0.00000   0.00000   0.14700   0.00000   0.05835
  40        2PZ         0.20030   0.11564   0.00000   0.08093   0.00000
  41        3S          0.00000   0.00000  -0.00000   0.00000  -0.10876
  42        3PX         0.00000   0.00000  -0.18682   0.00000   0.21617
  43        3PY         0.00000   0.00000  -0.32358   0.00000  -0.12481
  44        3PZ        -0.43571  -0.25155   0.00000  -0.17744   0.00000
  45        4S          0.00000   0.00000   0.00000   0.00000  -0.49086
  46        4PX         0.00000   0.00000  -0.15330   0.00000   0.51938
  47        4PY         0.00000   0.00000  -0.26552   0.00000  -0.29986
  48        4PZ        -0.37527  -0.21666   0.00000  -0.28465   0.00000
                          31        32        33        34        35
                        (E')--V   (E')--V  (A2")--V   (E')--V   (E')--V
     Eigenvalues --     0.21698   0.21698   0.58168   0.58172   0.58172
   1 1   B  1S          0.00000  -0.00000   0.00000   0.00000  -0.00000
   2        2S          0.00000   0.00000   0.00000   0.00000   0.00000
   3        2PX         0.52345   0.00000   0.00000  -1.03544   0.00000
   4        2PY         0.00000   0.52345   0.00000   0.00000  -1.03544
   5        2PZ         0.00000   0.00000  -1.07689   0.00000   0.00000
   6        3S          0.00000   0.00000   0.00000   0.00000  -0.00000
   7        3PX         1.80872   0.00000   0.00000   1.79878   0.00000
   8        3PY         0.00000   1.80872   0.00000   0.00000   1.79878
   9        3PZ         0.00000   0.00000   1.10187   0.00000   0.00000
  10 2   Cl 1S          0.00000  -0.02133   0.00000   0.00000  -0.01332
  11        2S          0.00000   0.13661   0.00000   0.00000   0.08438
  12        2PX         0.06248   0.00000   0.00000   0.09288   0.00000
  13        2PY         0.00000  -0.10110   0.00000   0.00000   0.06362
  14        2PZ         0.00000   0.00000   0.05927   0.00000   0.00000
  15        3S          0.00000  -0.09773   0.00000   0.00000  -0.29334
  16        3PX        -0.13205   0.00000   0.00000  -0.28511   0.00000
  17        3PY         0.00000   0.19718   0.00000   0.00000  -0.15239
  18        3PZ         0.00000   0.00000  -0.18838   0.00000   0.00000
  19        4S          0.00000  -1.11678   0.00000   0.00000  -0.52972
  20        4PX        -0.41085   0.00000   0.00000  -0.10851   0.00000
  21        4PY         0.00000   0.96258   0.00000   0.00000   0.36101
  22        4PZ         0.00000   0.00000  -0.03518   0.00000   0.00000
  23 3   Cl 1S          0.01847   0.01067   0.00000   0.01154   0.00666
  24        2S         -0.11831  -0.06830   0.00000  -0.07308  -0.04219
  25        2PX        -0.06021  -0.07084   0.00000   0.07093  -0.01267
  26        2PY        -0.07084   0.02159   0.00000  -0.01267   0.08556
  27        2PZ         0.00000   0.00000   0.05927   0.00000   0.00000
  28        3S          0.08464   0.04887   0.00000   0.25404   0.14667
  29        3PX         0.11488   0.14256   0.00000  -0.18557   0.05747
  30        3PY         0.14256  -0.04974   0.00000   0.05747  -0.25193
  31        3PZ         0.00000   0.00000  -0.18838   0.00000   0.00000
  32        4S          0.96716   0.55839   0.00000   0.45875   0.26486
  33        4PX         0.61922   0.59472   0.00000   0.24363   0.20330
  34        4PY         0.59472  -0.06750   0.00000   0.20330   0.00887
  35        4PZ         0.00000   0.00000  -0.03518   0.00000   0.00000
  36 4   Cl 1S         -0.01847   0.01067   0.00000  -0.01154   0.00666
  37        2S          0.11831  -0.06830   0.00000   0.07308  -0.04219
  38        2PX        -0.06021   0.07084   0.00000   0.07093   0.01267
  39        2PY         0.07084   0.02159   0.00000   0.01267   0.08556
  40        2PZ         0.00000   0.00000   0.05927   0.00000   0.00000
  41        3S         -0.08464   0.04887   0.00000  -0.25404   0.14667
  42        3PX         0.11488  -0.14256   0.00000  -0.18557  -0.05747
  43        3PY        -0.14256  -0.04974   0.00000  -0.05747  -0.25193
  44        3PZ         0.00000   0.00000  -0.18838   0.00000   0.00000
  45        4S         -0.96716   0.55839   0.00000  -0.45875   0.26486
  46        4PX         0.61922  -0.59472   0.00000   0.24363  -0.20330
  47        4PY        -0.59472  -0.06750   0.00000  -0.20330   0.00887
  48        4PZ         0.00000   0.00000  -0.03518   0.00000   0.00000
                          36        37        38        39        40
                       (A1')--V   (E')--V   (E')--V  (A1')--V   (E")--V
     Eigenvalues --     0.65663   0.73211   0.73211   0.77952   0.78779
   1 1   B  1S         -0.06792   0.00000  -0.00000  -0.00338   0.00000
   2        2S          0.85958   0.00000  -0.00000   0.34919   0.00000
   3        2PX         0.00000  -0.03843   0.00000   0.00000   0.00000
   4        2PY        -0.00000   0.00000   0.03843  -0.00000   0.00000
   5        2PZ         0.00000   0.00000   0.00000   0.00000   0.00000
   6        3S         -0.27854   0.00000  -0.00000   1.20205   0.00000
   7        3PX         0.00000   0.14193   0.00000   0.00000   0.00000
   8        3PY         0.00000   0.00000  -0.14193  -0.00000   0.00000
   9        3PZ         0.00000   0.00000   0.00000   0.00000   0.00000
  10 2   Cl 1S          0.03204   0.00000  -0.03167   0.00371   0.00000
  11        2S         -0.19603   0.00000   0.19364  -0.02014   0.00000
  12        2PX         0.00000   0.14578   0.00000   0.00000   0.00000
  13        2PY        -0.05336   0.00000   0.18895   0.19410   0.00000
  14        2PZ         0.00000   0.00000   0.00000   0.00000   0.00000
  15        3S          0.89839   0.00000  -0.86184   0.22785   0.00000
  16        3PX         0.00000  -0.49760   0.00000   0.00000   0.00000
  17        3PY         0.14298   0.00000  -0.65634  -0.71071   0.00000
  18        3PZ         0.00000   0.00000   0.00000   0.00000   0.00000
  19        4S         -0.84630   0.00000   0.89454  -0.52717   0.00000
  20        4PX         0.00000   0.41233   0.00000   0.00000   0.00000
  21        4PY        -0.01904   0.00000   0.58745   1.00633   0.00000
  22        4PZ         0.00000   0.00000   0.00000   0.00000   0.00000
  23 3   Cl 1S          0.03204  -0.02742   0.01583   0.00371   0.00000
  24        2S         -0.19603   0.16770  -0.09682  -0.02014   0.00000
  25        2PX         0.04621  -0.10527   0.14494  -0.16809   0.00000
  26        2PY         0.02668  -0.14494  -0.06210  -0.09705   0.00000
  27        2PZ         0.00000   0.00000   0.00000   0.00000  -0.24753
  28        3S          0.89839  -0.74638   0.43092   0.22785   0.00000
  29        3PX        -0.12383   0.36785  -0.49967   0.61550   0.00000
  30        3PY        -0.07149   0.49967   0.20911   0.35536   0.00000
  31        3PZ         0.00000   0.00000   0.00000   0.00000   0.87236
  32        4S         -0.84630   0.77469  -0.44727  -0.52717   0.00000
  33        4PX         0.01649  -0.33750   0.43292  -0.87151   0.00000
  34        4PY         0.00952  -0.43292  -0.16239  -0.50317   0.00000
  35        4PZ         0.00000   0.00000   0.00000   0.00000  -0.87084
  36 4   Cl 1S          0.03204   0.02742   0.01583   0.00371   0.00000
  37        2S         -0.19603  -0.16770  -0.09682  -0.02014   0.00000
  38        2PX        -0.04621  -0.10527  -0.14494   0.16809   0.00000
  39        2PY         0.02668   0.14494  -0.06210  -0.09705   0.00000
  40        2PZ         0.00000   0.00000   0.00000   0.00000   0.24753
  41        3S          0.89839   0.74638   0.43092   0.22785   0.00000
  42        3PX         0.12383   0.36785   0.49967  -0.61550   0.00000
  43        3PY        -0.07149  -0.49967   0.20911   0.35536   0.00000
  44        3PZ         0.00000   0.00000   0.00000   0.00000  -0.87236
  45        4S         -0.84630  -0.77469  -0.44727  -0.52717   0.00000
  46        4PX        -0.01649  -0.33750  -0.43292   0.87151   0.00000
  47        4PY         0.00952   0.43292  -0.16239  -0.50317   0.00000
  48        4PZ         0.00000   0.00000   0.00000   0.00000   0.87084
                          41        42        43        44        45
                        (E")--V   (E')--V   (E')--V  (A2")--V  (A2')--V
     Eigenvalues --     0.78779   0.82310   0.82310   0.83203   0.87988
   1 1   B  1S          0.00000   0.00000   0.00000   0.00000   0.00000
   2        2S          0.00000   0.00000   0.00000   0.00000   0.00000
   3        2PX         0.00000  -0.41927   0.00000   0.00000  -0.00000
   4        2PY         0.00000   0.00000  -0.41927   0.00000   0.00000
   5        2PZ         0.00000   0.00000   0.00000  -0.31806   0.00000
   6        3S          0.00000   0.00000  -0.00000   0.00000   0.00000
   7        3PX         0.00000   2.20055   0.00000   0.00000   0.00000
   8        3PY         0.00000   0.00000   2.20055   0.00000   0.00000
   9        3PZ        -0.00000   0.00000   0.00000   0.92308   0.00000
  10 2   Cl 1S          0.00000   0.00000   0.01936   0.00000   0.00000
  11        2S          0.00000   0.00000  -0.11307   0.00000   0.00000
  12        2PX         0.00000  -0.22145   0.00000   0.00000   0.20072
  13        2PY         0.00000   0.00000  -0.06850   0.00000   0.00000
  14        2PZ        -0.28582   0.00000   0.00000  -0.19077   0.00000
  15        3S          0.00000   0.00000   0.72330   0.00000   0.00000
  16        3PX         0.00000   0.82374   0.00000   0.00000  -0.72884
  17        3PY         0.00000   0.00000   0.24890   0.00000   0.00000
  18        3PZ         1.00732   0.00000   0.00000   0.69378   0.00000
  19        4S          0.00000   0.00000  -1.81221   0.00000   0.00000
  20        4PX         0.00000  -1.27249   0.00000   0.00000   0.80442
  21        4PY         0.00000   0.00000   0.36424   0.00000   0.00000
  22        4PZ        -1.00556   0.00000   0.00000  -0.89596   0.00000
  23 3   Cl 1S          0.00000  -0.01677  -0.00968   0.00000  -0.00000
  24        2S          0.00000   0.09792   0.05654   0.00000   0.00000
  25        2PX         0.00000  -0.10674   0.06623   0.00000  -0.10036
  26        2PY         0.00000   0.06623  -0.18321   0.00000   0.17383
  27        2PZ         0.14291   0.00000   0.00000  -0.19077   0.00000
  28        3S          0.00000  -0.62640  -0.36165   0.00000  -0.00000
  29        3PX         0.00000   0.39261  -0.24891   0.00000   0.36442
  30        3PY         0.00000  -0.24891   0.68003   0.00000  -0.63119
  31        3PZ        -0.50366   0.00000   0.00000   0.69378   0.00000
  32        4S          0.00000   1.56942   0.90611   0.00000   0.00000
  33        4PX         0.00000  -0.04494   0.70872   0.00000  -0.40221
  34        4PY         0.00000   0.70872  -0.86330   0.00000   0.69665
  35        4PZ         0.50278   0.00000   0.00000  -0.89596   0.00000
  36 4   Cl 1S          0.00000   0.01677  -0.00968   0.00000   0.00000
  37        2S          0.00000  -0.09792   0.05654   0.00000  -0.00000
  38        2PX         0.00000  -0.10674  -0.06623   0.00000  -0.10036
  39        2PY         0.00000  -0.06623  -0.18321   0.00000  -0.17383
  40        2PZ         0.14291   0.00000   0.00000  -0.19077   0.00000
  41        3S          0.00000   0.62640  -0.36165   0.00000   0.00000
  42        3PX         0.00000   0.39261   0.24891   0.00000   0.36442
  43        3PY         0.00000   0.24891   0.68003   0.00000   0.63119
  44        3PZ        -0.50366   0.00000   0.00000   0.69378   0.00000
  45        4S          0.00000  -1.56942   0.90611   0.00000  -0.00000
  46        4PX         0.00000  -0.04494  -0.70872   0.00000  -0.40221
  47        4PY         0.00000  -0.70872  -0.86330   0.00000  -0.69665
  48        4PZ         0.50278   0.00000   0.00000  -0.89596   0.00000
                          46        47        48
                       (A1')--V   (E')--V   (E')--V
     Eigenvalues --     0.96763   1.01297   1.01297
   1 1   B  1S         -0.04509   0.00000   0.00000
   2        2S         -1.63242   0.00000   0.00000
   3        2PX         0.00000   0.02803   0.00000
   4        2PY        -0.00000   0.00000  -0.02803
   5        2PZ         0.00000   0.00000   0.00000
   6        3S          4.12279   0.00000  -0.00000
   7        3PX         0.00000   1.80161   0.00000
   8        3PY        -0.00000   0.00000  -1.80161
   9        3PZ         0.00000   0.00000   0.00000
  10 2   Cl 1S          0.02144   0.00000  -0.04078
  11        2S         -0.12401   0.00000   0.24364
  12        2PX         0.00000   0.03826   0.00000
  13        2PY         0.02321   0.00000  -0.20951
  14        2PZ         0.00000   0.00000   0.00000
  15        3S          0.86609   0.00000  -1.49008
  16        3PX         0.00000  -0.11937   0.00000
  17        3PY        -0.09241   0.00000   0.81726
  18        3PZ         0.00000   0.00000   0.00000
  19        4S         -1.78255   0.00000   2.56582
  20        4PX         0.00000  -0.17209   0.00000
  21        4PY         0.80959   0.00000  -1.69438
  22        4PZ         0.00000   0.00000   0.00000
  23 3   Cl 1S          0.02144  -0.03532   0.02039
  24        2S         -0.12401   0.21100  -0.12182
  25        2PX        -0.02010   0.16670  -0.07415
  26        2PY        -0.01161   0.07415  -0.08107
  27        2PZ         0.00000   0.00000   0.00000
  28        3S          0.86609  -1.29045   0.74504
  29        3PX         0.08003  -0.64279   0.30219
  30        3PY         0.04620  -0.30219   0.29384
  31        3PZ         0.00000   0.00000   0.00000
  32        4S         -1.78255   2.22206  -1.28291
  33        4PX        -0.70112   1.22776  -0.80820
  34        4PY        -0.40479   0.80820  -0.29452
  35        4PZ         0.00000   0.00000   0.00000
  36 4   Cl 1S          0.02144   0.03532   0.02039
  37        2S         -0.12401  -0.21100  -0.12182
  38        2PX         0.02010   0.16670   0.07415
  39        2PY        -0.01161  -0.07415  -0.08107
  40        2PZ         0.00000   0.00000   0.00000
  41        3S          0.86609   1.29045   0.74504
  42        3PX        -0.08003  -0.64279  -0.30219
  43        3PY         0.04620   0.30219   0.29384
  44        3PZ         0.00000   0.00000   0.00000
  45        4S         -1.78255  -2.22206  -1.28291
  46        4PX         0.70112   1.22776   0.80820
  47        4PY        -0.40479  -0.80820  -0.29452
  48        4PZ         0.00000   0.00000   0.00000
     Density Matrix:
                           1         2         3         4         5
   1 1   B  1S          2.02083
   2        2S          0.08035   0.14925
   3        2PX         0.00000  -0.00000   0.23222
   4        2PY        -0.00000   0.00000  -0.00000   0.23222
   5        2PZ        -0.00000   0.00000   0.00000  -0.00000   0.05347
   6        3S         -0.24967   0.20184  -0.00000   0.00000   0.00000
   7        3PX        -0.00000  -0.00000   0.09280  -0.00000   0.00000
   8        3PY        -0.00000   0.00000   0.00000   0.09280  -0.00000
   9        3PZ         0.00000   0.00000   0.00000  -0.00000   0.05199
  10 2   Cl 1S         -0.00117   0.00613   0.00000   0.00781   0.00000
  11        2S          0.00717  -0.01940  -0.00000  -0.03943   0.00000
  12        2PX        -0.00000   0.00000  -0.01715   0.00000  -0.00000
  13        2PY        -0.04278   0.06051   0.00000   0.13760   0.00000
  14        2PZ        -0.00000   0.00000  -0.00000   0.00000  -0.04968
  15        3S         -0.01677   0.01496   0.00000   0.04608  -0.00000
  16        3PX         0.00000  -0.00000   0.03279  -0.00000   0.00000
  17        3PY         0.08991  -0.12512  -0.00000  -0.28945  -0.00000
  18        3PZ         0.00000  -0.00000  -0.00000  -0.00000   0.10500
  19        4S          0.04949  -0.03322  -0.00000  -0.01102  -0.00000
  20        4PX         0.00000  -0.00000  -0.00069  -0.00000   0.00000
  21        4PY         0.03386  -0.06248  -0.00000  -0.19543  -0.00000
  22        4PZ         0.00000  -0.00000   0.00000   0.00000   0.07769
  23 3   Cl 1S         -0.00117   0.00613  -0.00676  -0.00390  -0.00000
  24        2S          0.00717  -0.01940   0.03415   0.01971  -0.00000
  25        2PX         0.03705  -0.05240   0.09892   0.06701   0.00000
  26        2PY         0.02139  -0.03025   0.06701   0.02154   0.00000
  27        2PZ        -0.00000  -0.00000   0.00000   0.00000  -0.04968
  28        3S         -0.01677   0.01496  -0.03991  -0.02304   0.00000
  29        3PX        -0.07786   0.10836  -0.20889  -0.13953  -0.00000
  30        3PY        -0.04495   0.06256  -0.13953  -0.04777  -0.00000
  31        3PZ         0.00000   0.00000  -0.00000  -0.00000   0.10500
  32        4S          0.04949  -0.03322   0.00954   0.00551   0.00000
  33        4PX        -0.02933   0.05411  -0.14675  -0.08433   0.00000
  34        4PY        -0.01693   0.03124  -0.08433  -0.04938   0.00000
  35        4PZ        -0.00000   0.00000   0.00000  -0.00000   0.07769
  36 4   Cl 1S         -0.00117   0.00613   0.00676  -0.00390   0.00000
  37        2S          0.00717  -0.01940  -0.03415   0.01971   0.00000
  38        2PX        -0.03705   0.05240   0.09892  -0.06701   0.00000
  39        2PY         0.02139  -0.03025  -0.06701   0.02154  -0.00000
  40        2PZ         0.00000   0.00000   0.00000  -0.00000  -0.04968
  41        3S         -0.01677   0.01496   0.03991  -0.02304  -0.00000
  42        3PX         0.07786  -0.10836  -0.20889   0.13953  -0.00000
  43        3PY        -0.04495   0.06256   0.13953  -0.04777   0.00000
  44        3PZ        -0.00000  -0.00000  -0.00000   0.00000   0.10500
  45        4S          0.04949  -0.03322  -0.00954   0.00551  -0.00000
  46        4PX         0.02933  -0.05411  -0.14675   0.08433   0.00000
  47        4PY        -0.01693   0.03124   0.08433  -0.04938  -0.00000
  48        4PZ         0.00000  -0.00000   0.00000   0.00000   0.07769
                           6         7         8         9        10
   6        3S          0.38269
   7        3PX         0.00000   0.10121
   8        3PY        -0.00000   0.00000   0.10121
   9        3PZ        -0.00000  -0.00000  -0.00000   0.05076
  10 2   Cl 1S         -0.03463  -0.00000  -0.03618  -0.00000   2.14422
  11        2S          0.10888   0.00000   0.10539   0.00000  -0.57390
  12        2PX         0.00000  -0.05646   0.00000   0.00000  -0.00000
  13        2PY         0.07696   0.00000   0.02480   0.00000  -0.00554
  14        2PZ         0.00000  -0.00000   0.00000  -0.03676  -0.00000
  15        3S         -0.05956  -0.00000  -0.04371  -0.00000  -0.03048
  16        3PX        -0.00000   0.17147  -0.00000  -0.00000   0.00000
  17        3PY        -0.22082  -0.00000  -0.10234  -0.00000   0.01482
  18        3PZ        -0.00000   0.00000  -0.00000   0.10310   0.00000
  19        4S         -0.15080  -0.00000  -0.12088  -0.00000   0.17160
  20        4PX        -0.00000   0.11692  -0.00000  -0.00000  -0.00000
  21        4PY        -0.10414  -0.00000  -0.03643  -0.00000  -0.02078
  22        4PZ        -0.00000   0.00000  -0.00000   0.07526  -0.00000
  23 3   Cl 1S         -0.03463   0.03133   0.01809   0.00000   0.00005
  24        2S          0.10888  -0.09127  -0.05270   0.00000  -0.00018
  25        2PX        -0.06665   0.00448   0.03518   0.00000   0.00015
  26        2PY        -0.03848   0.03518  -0.03614  -0.00000   0.00147
  27        2PZ         0.00000   0.00000   0.00000  -0.03676  -0.00000
  28        3S         -0.05956   0.03785   0.02185  -0.00000   0.00222
  29        3PX         0.19123  -0.03389  -0.11857  -0.00000   0.00031
  30        3PY         0.11041  -0.11857   0.10302  -0.00000  -0.00312
  31        3PZ        -0.00000  -0.00000  -0.00000   0.10310  -0.00000
  32        4S         -0.15080   0.10468   0.06044  -0.00000  -0.00550
  33        4PX         0.09018   0.00191  -0.06640  -0.00000  -0.00508
  34        4PY         0.05207  -0.06640   0.07859  -0.00000   0.00032
  35        4PZ        -0.00000  -0.00000  -0.00000   0.07526  -0.00000
  36 4   Cl 1S         -0.03463  -0.03133   0.01809  -0.00000   0.00005
  37        2S          0.10888   0.09127  -0.05270  -0.00000  -0.00018
  38        2PX         0.06665   0.00448  -0.03518   0.00000  -0.00015
  39        2PY        -0.03848  -0.03518  -0.03614   0.00000   0.00147
  40        2PZ        -0.00000   0.00000  -0.00000  -0.03676   0.00000
  41        3S         -0.05956  -0.03785   0.02185   0.00000   0.00222
  42        3PX        -0.19123  -0.03389   0.11857  -0.00000  -0.00031
  43        3PY         0.11041   0.11857   0.10302   0.00000  -0.00312
  44        3PZ         0.00000  -0.00000   0.00000   0.10310   0.00000
  45        4S         -0.15080  -0.10468   0.06044   0.00000  -0.00550
  46        4PX        -0.09018   0.00191   0.06640  -0.00000   0.00508
  47        4PY         0.05207   0.06640   0.07859   0.00000   0.00032
  48        4PZ         0.00000  -0.00000   0.00000   0.07526   0.00000
                          11        12        13        14        15
  11        2S          2.39265
  12        2PX         0.00000   2.05802
  13        2PY         0.03031  -0.00000   2.00910
  14        2PZ         0.00000   0.00000  -0.00000   2.04874
  15        3S         -0.28717  -0.00000  -0.04895  -0.00000   0.75955
  16        3PX        -0.00000  -0.19576   0.00000  -0.00000   0.00000
  17        3PY        -0.07073   0.00000  -0.08509   0.00000   0.07325
  18        3PZ        -0.00000  -0.00000   0.00000  -0.17306   0.00000
  19        4S         -0.69987  -0.00000  -0.03989   0.00000   0.63724
  20        4PX         0.00000  -0.32514   0.00000   0.00000   0.00000
  21        4PY         0.03071   0.00000  -0.22776   0.00000   0.03443
  22        4PZ         0.00000   0.00000   0.00000  -0.31853   0.00000
  23 3   Cl 1S         -0.00018  -0.00119  -0.00087  -0.00000   0.00222
  24        2S          0.00020   0.00745   0.00604   0.00000  -0.00516
  25        2PX        -0.00150   0.00543   0.00777   0.00000   0.00262
  26        2PY        -0.00947   0.01044   0.01595   0.00000   0.00358
  27        2PZ         0.00000  -0.00000   0.00000  -0.01033   0.00000
  28        3S         -0.00516  -0.00179  -0.00406  -0.00000   0.00276
  29        3PX         0.00182  -0.01144  -0.01704  -0.00000  -0.01114
  30        3PY         0.02093  -0.02300  -0.03443   0.00000  -0.00916
  31        3PZ        -0.00000  -0.00000   0.00000   0.02214  -0.00000
  32        4S          0.01435  -0.04626  -0.02283  -0.00000  -0.00074
  33        4PX         0.01420  -0.02752  -0.01898   0.00000  -0.00994
  34        4PY         0.00774  -0.03869  -0.04547  -0.00000  -0.00235
  35        4PZ         0.00000  -0.00000   0.00000   0.02805  -0.00000
  36 4   Cl 1S         -0.00018   0.00119  -0.00087   0.00000   0.00222
  37        2S          0.00020  -0.00745   0.00604  -0.00000  -0.00516
  38        2PX         0.00150   0.00543  -0.00777   0.00000  -0.00262
  39        2PY        -0.00947  -0.01044   0.01595  -0.00000   0.00358
  40        2PZ        -0.00000  -0.00000  -0.00000  -0.01033  -0.00000
  41        3S         -0.00516   0.00179  -0.00406   0.00000   0.00276
  42        3PX        -0.00182  -0.01144   0.01704  -0.00000   0.01114
  43        3PY         0.02093   0.02300  -0.03443  -0.00000  -0.00916
  44        3PZ         0.00000  -0.00000  -0.00000   0.02214   0.00000
  45        4S          0.01435   0.04626  -0.02283   0.00000  -0.00074
  46        4PX        -0.01420  -0.02752   0.01898   0.00000   0.00994
  47        4PY         0.00774   0.03869  -0.04547   0.00000  -0.00235
  48        4PZ        -0.00000  -0.00000  -0.00000   0.02805   0.00000
                          16        17        18        19        20
  16        3PX         0.78213
  17        3PY        -0.00000   0.54485
  18        3PZ        -0.00000  -0.00000   0.72550
  19        4S          0.00000   0.16819   0.00000   0.69805
  20        4PX         0.59728  -0.00000  -0.00000   0.00000   0.47545
  21        4PY        -0.00000   0.34048  -0.00000   0.05046  -0.00000
  22        4PZ        -0.00000  -0.00000   0.58478   0.00000  -0.00000
  23 3   Cl 1S          0.00286   0.00130   0.00000  -0.00550  -0.00282
  24        2S         -0.01722  -0.01204   0.00000   0.01435   0.00040
  25        2PX        -0.01134  -0.01698  -0.00000  -0.00336  -0.01601
  26        2PY        -0.02295  -0.03452   0.00000   0.05148  -0.03205
  27        2PZ        -0.00000  -0.00000   0.02214  -0.00000  -0.00000
  28        3S          0.00237   0.01423   0.00000  -0.00074  -0.00294
  29        3PX         0.02407   0.03967   0.00000   0.02827   0.03661
  30        3PY         0.05339   0.07780  -0.00000  -0.12595   0.07065
  31        3PZ         0.00000   0.00000  -0.04633   0.00000   0.00000
  32        4S          0.12321   0.03849   0.00000  -0.01389   0.08155
  33        4PX         0.06736   0.03489  -0.00000   0.01433   0.06257
  34        4PY         0.08840   0.09754   0.00000  -0.08589   0.08809
  35        4PZ         0.00000  -0.00000  -0.06552   0.00000   0.00000
  36 4   Cl 1S         -0.00286   0.00130  -0.00000  -0.00550   0.00282
  37        2S          0.01722  -0.01204  -0.00000   0.01435  -0.00040
  38        2PX        -0.01134   0.01698  -0.00000   0.00336  -0.01601
  39        2PY         0.02295  -0.03452  -0.00000   0.05148   0.03205
  40        2PZ        -0.00000   0.00000   0.02214   0.00000  -0.00000
  41        3S         -0.00237   0.01423  -0.00000  -0.00074   0.00294
  42        3PX         0.02407  -0.03967   0.00000  -0.02827   0.03661
  43        3PY        -0.05339   0.07780   0.00000  -0.12595  -0.07065
  44        3PZ         0.00000  -0.00000  -0.04633  -0.00000   0.00000
  45        4S         -0.12321   0.03849  -0.00000  -0.01389  -0.08155
  46        4PX         0.06736  -0.03489  -0.00000  -0.01433   0.06257
  47        4PY        -0.08840   0.09754  -0.00000  -0.08589  -0.08809
  48        4PZ         0.00000   0.00000  -0.06552  -0.00000   0.00000
                          21        22        23        24        25
  21        4PY         0.24811
  22        4PZ        -0.00000   0.48954
  23 3   Cl 1S          0.00424  -0.00000   2.14422
  24        2S         -0.01617  -0.00000  -0.57390   2.39265
  25        2PX        -0.01234  -0.00000   0.00480  -0.02625   2.02133
  26        2PY        -0.05698   0.00000   0.00277  -0.01516  -0.02118
  27        2PZ         0.00000   0.02805  -0.00000   0.00000   0.00000
  28        3S          0.00978   0.00000  -0.03048  -0.28717   0.04239
  29        3PX         0.01713   0.00000  -0.01283   0.06126  -0.11276
  30        3PY         0.12828  -0.00000  -0.00741   0.03537   0.04792
  31        3PZ        -0.00000  -0.06552   0.00000  -0.00000  -0.00000
  32        4S          0.03053   0.00000   0.17160  -0.69987   0.03455
  33        4PX         0.01734   0.00000   0.01799  -0.02660  -0.25210
  34        4PY         0.12344  -0.00000   0.01039  -0.01536   0.04217
  35        4PZ        -0.00000  -0.07488  -0.00000   0.00000   0.00000
  36 4   Cl 1S          0.00424   0.00000   0.00005  -0.00018   0.00135
  37        2S         -0.01617   0.00000  -0.00018   0.00020  -0.00895
  38        2PX         0.01234  -0.00000  -0.00135   0.00895   0.02120
  39        2PY        -0.05698  -0.00000  -0.00060   0.00343   0.00133
  40        2PZ        -0.00000   0.02805  -0.00000   0.00000   0.00000
  41        3S          0.00978  -0.00000   0.00222  -0.00516   0.00441
  42        3PX        -0.01713   0.00000   0.00255  -0.01904  -0.04602
  43        3PY         0.12828   0.00000   0.00183  -0.00889  -0.00293
  44        3PZ         0.00000  -0.06552   0.00000   0.00000  -0.00000
  45        4S          0.03053  -0.00000  -0.00550   0.01435   0.04290
  46        4PX        -0.01734   0.00000   0.00226  -0.01381  -0.06595
  47        4PY         0.12344   0.00000  -0.00456   0.00843  -0.00321
  48        4PZ         0.00000  -0.07488   0.00000  -0.00000   0.00000
                          26        27        28        29        30
  26        2PY         2.04579
  27        2PZ         0.00000   2.04874
  28        3S          0.02447  -0.00000   0.75955
  29        3PX         0.04792  -0.00000  -0.06344   0.60417
  30        3PY        -0.16809  -0.00000  -0.03663  -0.10274   0.72281
  31        3PZ        -0.00000  -0.17306   0.00000   0.00000   0.00000
  32        4S          0.01994   0.00000   0.63724  -0.14566  -0.08410
  33        4PX         0.04217   0.00000  -0.02982   0.40468  -0.11120
  34        4PY        -0.30079   0.00000  -0.01722  -0.11120   0.53308
  35        4PZ        -0.00000  -0.31853  -0.00000  -0.00000   0.00000
  36 4   Cl 1S         -0.00060   0.00000   0.00222  -0.00255   0.00183
  37        2S          0.00343  -0.00000  -0.00516   0.01904  -0.00889
  38        2PX        -0.00133   0.00000  -0.00441  -0.04602   0.00293
  39        2PY         0.00017  -0.00000   0.00048  -0.00304   0.00015
  40        2PZ         0.00000  -0.01033  -0.00000  -0.00000  -0.00000
  41        3S          0.00048   0.00000   0.00276  -0.01351  -0.00507
  42        3PX         0.00304  -0.00000   0.01351   0.10466  -0.00686
  43        3PY         0.00015   0.00000  -0.00507   0.00686  -0.00280
  44        3PZ         0.00000   0.02214   0.00000   0.00000  -0.00000
  45        4S         -0.02865  -0.00000  -0.00074  -0.09494   0.08746
  46        4PX         0.01650   0.00000   0.00700   0.14338  -0.04451
  47        4PY        -0.00703  -0.00000  -0.00744   0.00900   0.02152
  48        4PZ        -0.00000   0.02805   0.00000  -0.00000   0.00000
                          31        32        33        34        35
  31        3PZ         0.72550
  32        4S         -0.00000   0.69805
  33        4PX        -0.00000  -0.04370   0.30495
  34        4PY        -0.00000  -0.02523  -0.09844   0.41861
  35        4PZ         0.58478  -0.00000  -0.00000  -0.00000   0.48954
  36 4   Cl 1S         -0.00000  -0.00550  -0.00226  -0.00456  -0.00000
  37        2S         -0.00000   0.01435   0.01381   0.00843   0.00000
  38        2PX        -0.00000  -0.04290  -0.06595   0.00321   0.00000
  39        2PY        -0.00000  -0.02865  -0.01650  -0.00703   0.00000
  40        2PZ         0.02214   0.00000   0.00000   0.00000   0.02805
  41        3S         -0.00000  -0.00074  -0.00700  -0.00744  -0.00000
  42        3PX         0.00000   0.09494   0.14338  -0.00900  -0.00000
  43        3PY         0.00000   0.08746   0.04451   0.02152  -0.00000
  44        3PZ        -0.04633  -0.00000  -0.00000  -0.00000  -0.06552
  45        4S          0.00000  -0.01389  -0.06722   0.05535   0.00000
  46        4PX        -0.00000   0.06722   0.15388  -0.03538  -0.00000
  47        4PY         0.00000   0.05535   0.03538   0.03213  -0.00000
  48        4PZ        -0.06552  -0.00000  -0.00000   0.00000  -0.07488
                          36        37        38        39        40
  36 4   Cl 1S          2.14422
  37        2S         -0.57390   2.39265
  38        2PX        -0.00480   0.02625   2.02133
  39        2PY         0.00277  -0.01516   0.02118   2.04579
  40        2PZ         0.00000  -0.00000   0.00000  -0.00000   2.04874
  41        3S         -0.03048  -0.28717  -0.04239   0.02447   0.00000
  42        3PX         0.01283  -0.06126  -0.11276  -0.04792  -0.00000
  43        3PY        -0.00741   0.03537  -0.04792  -0.16809   0.00000
  44        3PZ        -0.00000   0.00000  -0.00000   0.00000  -0.17306
  45        4S          0.17160  -0.69987  -0.03455   0.01994  -0.00000
  46        4PX        -0.01799   0.02660  -0.25210  -0.04217   0.00000
  47        4PY         0.01039  -0.01536  -0.04217  -0.30079  -0.00000
  48        4PZ         0.00000  -0.00000   0.00000   0.00000  -0.31853
                          41        42        43        44        45
  41        3S          0.75955
  42        3PX         0.06344   0.60417
  43        3PY        -0.03663   0.10274   0.72281
  44        3PZ        -0.00000   0.00000  -0.00000   0.72550
  45        4S          0.63724   0.14566  -0.08410   0.00000   0.69805
  46        4PX         0.02982   0.40468   0.11120  -0.00000   0.04370
  47        4PY        -0.01722   0.11120   0.53308   0.00000  -0.02523
  48        4PZ         0.00000  -0.00000  -0.00000   0.58478   0.00000
                          46        47        48
  46        4PX         0.30495
  47        4PY         0.09844   0.41861
  48        4PZ        -0.00000   0.00000   0.48954
    Full Mulliken population analysis:
                           1         2         3         4         5
   1 1   B  1S          2.02083
   2        2S          0.01469   0.14925
   3        2PX         0.00000   0.00000   0.23222
   4        2PY         0.00000   0.00000  -0.00000   0.23222
   5        2PZ         0.00000   0.00000   0.00000  -0.00000   0.05347
   6        3S         -0.04341   0.15649   0.00000   0.00000   0.00000
   7        3PX         0.00000   0.00000   0.05116   0.00000   0.00000
   8        3PY         0.00000   0.00000   0.00000   0.05116   0.00000
   9        3PZ         0.00000   0.00000   0.00000   0.00000   0.02866
  10 2   Cl 1S         -0.00000   0.00000  -0.00000   0.00001  -0.00000
  11        2S          0.00000  -0.00006   0.00000  -0.00040  -0.00000
  12        2PX        -0.00000   0.00000  -0.00002   0.00000   0.00000
  13        2PY         0.00000  -0.00020   0.00000  -0.00128   0.00000
  14        2PZ        -0.00000   0.00000   0.00000   0.00000  -0.00005
  15        3S         -0.00003   0.00090  -0.00000   0.00525   0.00000
  16        3PX         0.00000  -0.00000   0.00114  -0.00000  -0.00000
  17        3PY        -0.00044   0.01376  -0.00000   0.05387  -0.00000
  18        3PZ         0.00000  -0.00000   0.00000  -0.00000   0.00364
  19        4S          0.00143  -0.00649   0.00000  -0.00227   0.00000
  20        4PX         0.00000  -0.00000  -0.00010  -0.00000  -0.00000
  21        4PY        -0.00271   0.02527  -0.00000   0.05847  -0.00000
  22        4PZ         0.00000  -0.00000  -0.00000   0.00000   0.01107
  23 3   Cl 1S         -0.00000   0.00000   0.00001   0.00000  -0.00000
  24        2S          0.00000  -0.00006  -0.00030  -0.00010  -0.00000
  25        2PX         0.00000  -0.00015  -0.00067  -0.00030   0.00000
  26        2PY         0.00000  -0.00005  -0.00030  -0.00003   0.00000
  27        2PZ         0.00000   0.00000   0.00000   0.00000  -0.00005
  28        3S         -0.00003   0.00090   0.00394   0.00131   0.00000
  29        3PX        -0.00033   0.01032   0.02734   0.01334  -0.00000
  30        3PY        -0.00011   0.00344   0.01334   0.00098  -0.00000
  31        3PZ        -0.00000  -0.00000  -0.00000  -0.00000   0.00364
  32        4S          0.00143  -0.00649  -0.00170  -0.00057   0.00000
  33        4PX        -0.00203   0.01895   0.02770   0.01613   0.00000
  34        4PY        -0.00068   0.00632   0.01613  -0.00158   0.00000
  35        4PZ         0.00000  -0.00000   0.00000  -0.00000   0.01107
  36 4   Cl 1S         -0.00000   0.00000   0.00001   0.00000   0.00000
  37        2S          0.00000  -0.00006  -0.00030  -0.00010   0.00000
  38        2PX         0.00000  -0.00015  -0.00067  -0.00030  -0.00000
  39        2PY         0.00000  -0.00005  -0.00030  -0.00003   0.00000
  40        2PZ        -0.00000  -0.00000  -0.00000   0.00000  -0.00005
  41        3S         -0.00003   0.00090   0.00394   0.00131  -0.00000
  42        3PX        -0.00033   0.01032   0.02734   0.01334   0.00000
  43        3PY        -0.00011   0.00344   0.01334   0.00098   0.00000
  44        3PZ         0.00000   0.00000   0.00000   0.00000   0.00364
  45        4S          0.00143  -0.00649  -0.00170  -0.00057  -0.00000
  46        4PX        -0.00203   0.01895   0.02770   0.01613  -0.00000
  47        4PY        -0.00068   0.00632   0.01613  -0.00158   0.00000
  48        4PZ        -0.00000   0.00000  -0.00000  -0.00000   0.01107
                           6         7         8         9        10
   6        3S          0.38269
   7        3PX         0.00000   0.10121
   8        3PY         0.00000   0.00000   0.10121
   9        3PZ         0.00000  -0.00000  -0.00000   0.05076
  10 2   Cl 1S         -0.00020   0.00000  -0.00052   0.00000   2.14422
  11        2S          0.00493  -0.00000   0.01152  -0.00000  -0.14889
  12        2PX         0.00000  -0.00062   0.00000  -0.00000   0.00000
  13        2PY        -0.00105   0.00000  -0.00055   0.00000   0.00000
  14        2PZ         0.00000   0.00000   0.00000  -0.00040   0.00000
  15        3S         -0.01265   0.00000  -0.01846   0.00000  -0.00180
  16        3PX        -0.00000   0.02408  -0.00000  -0.00000   0.00000
  17        3PY         0.03863  -0.00000   0.02214  -0.00000   0.00000
  18        3PZ        -0.00000   0.00000  -0.00000   0.01447   0.00000
  19        4S         -0.06098   0.00000  -0.06978   0.00000   0.00582
  20        4PX        -0.00000   0.04678  -0.00000   0.00000   0.00000
  21        4PY         0.05191  -0.00000   0.01135  -0.00000   0.00000
  22        4PZ        -0.00000  -0.00000  -0.00000   0.03011   0.00000
  23 3   Cl 1S         -0.00020  -0.00039  -0.00013   0.00000   0.00000
  24        2S          0.00493   0.00864   0.00288   0.00000   0.00000
  25        2PX        -0.00079  -0.00006  -0.00051   0.00000   0.00000
  26        2PY        -0.00026  -0.00051  -0.00010  -0.00000   0.00000
  27        2PZ        -0.00000   0.00000   0.00000  -0.00040   0.00000
  28        3S         -0.01265  -0.01385  -0.00462  -0.00000   0.00000
  29        3PX         0.02897   0.00431   0.01832  -0.00000   0.00000
  30        3PY         0.00966   0.01832   0.00528  -0.00000  -0.00000
  31        3PZ         0.00000  -0.00000  -0.00000   0.01447   0.00000
  32        4S         -0.06098  -0.05233  -0.01744  -0.00000  -0.00000
  33        4PX         0.03893  -0.00026   0.02046  -0.00000  -0.00000
  34        4PY         0.01298   0.02046   0.01746  -0.00000   0.00000
  35        4PZ         0.00000  -0.00000  -0.00000   0.03011   0.00000
  36 4   Cl 1S         -0.00020  -0.00039  -0.00013  -0.00000   0.00000
  37        2S          0.00493   0.00864   0.00288  -0.00000   0.00000
  38        2PX        -0.00079  -0.00006  -0.00051  -0.00000   0.00000
  39        2PY        -0.00026  -0.00051  -0.00010   0.00000   0.00000
  40        2PZ         0.00000  -0.00000  -0.00000  -0.00040   0.00000
  41        3S         -0.01265  -0.01385  -0.00462   0.00000   0.00000
  42        3PX         0.02897   0.00431   0.01832   0.00000   0.00000
  43        3PY         0.00966   0.01832   0.00528   0.00000  -0.00000
  44        3PZ        -0.00000  -0.00000   0.00000   0.01447   0.00000
  45        4S         -0.06098  -0.05233  -0.01744   0.00000  -0.00000
  46        4PX         0.03893  -0.00026   0.02046   0.00000  -0.00000
  47        4PY         0.01298   0.02046   0.01746   0.00000   0.00000
  48        4PZ        -0.00000  -0.00000  -0.00000   0.03011   0.00000
                          11        12        13        14        15
  11        2S          2.39265
  12        2PX         0.00000   2.05802
  13        2PY         0.00000   0.00000   2.00910
  14        2PZ         0.00000   0.00000   0.00000   2.04874
  15        3S         -0.12486   0.00000   0.00000   0.00000   0.75955
  16        3PX         0.00000  -0.06290   0.00000  -0.00000   0.00000
  17        3PY         0.00000  -0.00000  -0.02734   0.00000   0.00000
  18        3PZ         0.00000  -0.00000   0.00000  -0.05560   0.00000
  19        4S         -0.17491   0.00000   0.00000   0.00000   0.52527
  20        4PX         0.00000  -0.02281  -0.00000   0.00000   0.00000
  21        4PY         0.00000   0.00000  -0.01598   0.00000   0.00000
  22        4PZ         0.00000   0.00000  -0.00000  -0.02235   0.00000
  23 3   Cl 1S          0.00000   0.00000   0.00000   0.00000   0.00000
  24        2S          0.00000   0.00000   0.00000   0.00000  -0.00000
  25        2PX         0.00000   0.00000   0.00000   0.00000   0.00000
  26        2PY         0.00000   0.00000   0.00000   0.00000   0.00000
  27        2PZ         0.00000   0.00000   0.00000   0.00000   0.00000
  28        3S         -0.00000   0.00000   0.00000  -0.00000   0.00000
  29        3PX         0.00000   0.00000   0.00000  -0.00000  -0.00000
  30        3PY         0.00000   0.00000   0.00000   0.00000  -0.00000
  31        3PZ         0.00000  -0.00000   0.00000   0.00000   0.00000
  32        4S          0.00001   0.00001   0.00001  -0.00000  -0.00001
  33        4PX         0.00002   0.00001   0.00002   0.00000  -0.00014
  34        4PY         0.00002   0.00003   0.00006  -0.00000  -0.00006
  35        4PZ        -0.00000  -0.00000   0.00000   0.00000   0.00000
  36 4   Cl 1S          0.00000   0.00000   0.00000   0.00000   0.00000
  37        2S          0.00000   0.00000   0.00000   0.00000  -0.00000
  38        2PX         0.00000   0.00000   0.00000   0.00000   0.00000
  39        2PY         0.00000   0.00000   0.00000   0.00000   0.00000
  40        2PZ         0.00000   0.00000   0.00000   0.00000  -0.00000
  41        3S         -0.00000   0.00000   0.00000   0.00000   0.00000
  42        3PX         0.00000   0.00000   0.00000   0.00000  -0.00000
  43        3PY         0.00000   0.00000   0.00000   0.00000  -0.00000
  44        3PZ         0.00000   0.00000   0.00000   0.00000   0.00000
  45        4S          0.00001   0.00001   0.00001   0.00000  -0.00001
  46        4PX         0.00002   0.00001   0.00002   0.00000  -0.00014
  47        4PY         0.00002   0.00003   0.00006   0.00000  -0.00006
  48        4PZ         0.00000   0.00000   0.00000   0.00000   0.00000
                          16        17        18        19        20
  16        3PX         0.78213
  17        3PY        -0.00000   0.54485
  18        3PZ        -0.00000  -0.00000   0.72550
  19        4S          0.00000   0.00000   0.00000   0.69805
  20        4PX         0.37203  -0.00000   0.00000   0.00000   0.47545
  21        4PY         0.00000   0.21207  -0.00000   0.00000   0.00000
  22        4PZ        -0.00000  -0.00000   0.36424   0.00000  -0.00000
  23 3   Cl 1S         -0.00000  -0.00000   0.00000  -0.00000   0.00000
  24        2S          0.00000   0.00000   0.00000   0.00001  -0.00000
  25        2PX         0.00000   0.00000   0.00000  -0.00000   0.00001
  26        2PY         0.00000   0.00000   0.00000   0.00002   0.00003
  27        2PZ         0.00000   0.00000   0.00000   0.00000   0.00000
  28        3S         -0.00000  -0.00000   0.00000  -0.00001   0.00004
  29        3PX        -0.00000  -0.00001   0.00000   0.00018  -0.00026
  30        3PY        -0.00002  -0.00004  -0.00000  -0.00139  -0.00149
  31        3PZ         0.00000   0.00000  -0.00000   0.00000   0.00000
  32        4S         -0.00078  -0.00042   0.00000  -0.00061  -0.00449
  33        4PX        -0.00048  -0.00074  -0.00000   0.00079  -0.00155
  34        4PY        -0.00186  -0.00307   0.00000  -0.00819  -0.01049
  35        4PZ         0.00000  -0.00000  -0.00033  -0.00000   0.00000
  36 4   Cl 1S         -0.00000  -0.00000   0.00000  -0.00000   0.00000
  37        2S          0.00000   0.00000   0.00000   0.00001  -0.00000
  38        2PX         0.00000   0.00000  -0.00000  -0.00000   0.00001
  39        2PY         0.00000   0.00000   0.00000   0.00002   0.00003
  40        2PZ        -0.00000  -0.00000   0.00000   0.00000  -0.00000
  41        3S         -0.00000  -0.00000   0.00000  -0.00001   0.00004
  42        3PX        -0.00000  -0.00001   0.00000   0.00018  -0.00026
  43        3PY        -0.00002  -0.00004  -0.00000  -0.00139  -0.00149
  44        3PZ         0.00000   0.00000  -0.00000  -0.00000   0.00000
  45        4S         -0.00078  -0.00042   0.00000  -0.00061  -0.00449
  46        4PX        -0.00048  -0.00074   0.00000   0.00079  -0.00155
  47        4PY        -0.00186  -0.00307   0.00000  -0.00819  -0.01049
  48        4PZ         0.00000   0.00000  -0.00033  -0.00000   0.00000
                          21        22        23        24        25
  21        4PY         0.24811
  22        4PZ         0.00000   0.48954
  23 3   Cl 1S         -0.00000  -0.00000   2.14422
  24        2S          0.00004   0.00000  -0.14889   2.39265
  25        2PX         0.00001   0.00000   0.00000   0.00000   2.02133
  26        2PY         0.00008   0.00000   0.00000   0.00000  -0.00000
  27        2PZ         0.00000   0.00000   0.00000   0.00000   0.00000
  28        3S         -0.00025   0.00000  -0.00180  -0.12486   0.00000
  29        3PX        -0.00036   0.00000   0.00000   0.00000  -0.03623
  30        3PY        -0.00403   0.00000   0.00000   0.00000  -0.00000
  31        3PZ         0.00000  -0.00033   0.00000   0.00000   0.00000
  32        4S         -0.00291   0.00000   0.00582  -0.17491   0.00000
  33        4PX        -0.00206   0.00000   0.00000   0.00000  -0.01769
  34        4PY        -0.02003  -0.00000   0.00000   0.00000   0.00000
  35        4PZ        -0.00000  -0.00330   0.00000   0.00000  -0.00000
  36 4   Cl 1S         -0.00000   0.00000   0.00000   0.00000   0.00000
  37        2S          0.00004  -0.00000   0.00000   0.00000   0.00000
  38        2PX         0.00001  -0.00000   0.00000   0.00000   0.00000
  39        2PY         0.00008   0.00000   0.00000   0.00000   0.00000
  40        2PZ         0.00000   0.00000   0.00000   0.00000   0.00000
  41        3S         -0.00025   0.00000   0.00000  -0.00000   0.00000
  42        3PX        -0.00036   0.00000  -0.00000   0.00000   0.00000
  43        3PY        -0.00403  -0.00000   0.00000   0.00000   0.00000
  44        3PZ        -0.00000  -0.00033   0.00000   0.00000  -0.00000
  45        4S         -0.00291   0.00000  -0.00000   0.00001   0.00002
  46        4PX        -0.00206   0.00000  -0.00000   0.00004   0.00012
  47        4PY        -0.02003  -0.00000  -0.00000  -0.00000   0.00000
  48        4PZ        -0.00000  -0.00330   0.00000  -0.00000   0.00000
                          26        27        28        29        30
  26        2PY         2.04579
  27        2PZ        -0.00000   2.04874
  28        3S          0.00000   0.00000   0.75955
  29        3PX         0.00000   0.00000   0.00000   0.60417
  30        3PY        -0.05401   0.00000   0.00000   0.00000   0.72281
  31        3PZ         0.00000  -0.05560   0.00000   0.00000  -0.00000
[...]
 Octapole moment (field-independent basis, Debye-Ang**2):
  XXX=             -0.0000  YYY=             -1.0211  ZZZ=             -0.0000  XYY=             -0.0000
  XXY=              1.0211  XXZ=             -0.0000  XZZ=             -0.0000  YZZ=              0.0000
  YYZ=             -0.0000  XYZ=              0.0000
 Hexadecapole moment (field-independent basis, Debye-Ang**3):
 XXXX=           -408.9019 YYYY=           -408.9019 ZZZZ=            -49.5529 XXXY=             -0.0000
 XXXZ=             -0.0000 YYYX=             -0.0000 YYYZ=              0.0000 ZZZX=             -0.0000
 ZZZY=              0.0000 XXYY=           -136.3006 XXZZ=            -77.7020 YYZZ=            -77.7020
 XXYZ=              0.0000 YYXZ=             -0.0000 ZZXY=             -0.0000
 N-N= 2.257202823418D+02 E-N=-3.775269465029D+03  KE= 1.395588638570D+03
 Symmetry A1   KE= 8.018280352332D+02
 Symmetry A2   KE= 4.532828490199D+01
 Symmetry B1   KE= 4.586922841037D+02
 Symmetry B2   KE= 8.974003433151D+01
 Orbital energies and kinetic energies (alpha):
                                 1                 2
   1         O              -104.148468        136.074305
   2         O              -104.148468        136.074305
   3         (A1')--O       -104.148087        136.083754
   4         O               -10.545150         22.330169
   5         O               -10.545150         22.330169
   6         O               -10.543908         22.360762
   7         O                -8.007782         20.329044
   8         O                -8.007782         20.329044
   9         O                -8.007585         20.340130
  10         (A2")--O         -8.003998         20.363004
  11         (E")--O          -8.003960         20.365121
  12         (E")--O          -8.003960         20.365121
  13         O                -8.003735         20.359815
  14         O                -8.003533         20.369405
  15         O                -8.003533         20.369405
  16         O                -7.782452         10.808490
  17         O                -1.206074          2.585763
  18         O                -1.144128          2.940175
  19         O                -1.144128          2.940175
  20         O                -0.711952          2.257774
  21         O                -0.623210          2.066966
  22         O                -0.623210          2.066966
  23         (A2")--O         -0.573460          1.842871
  24         O                -0.503730          2.367280
  25         O                -0.503730          2.367280
  26         (E")--O          -0.497312          2.299021
  27         (E")--O          -0.497312          2.299021
  28         O                -0.477185          2.508982
  29         (A2")--V          0.048931          1.324564
  30         V                 0.162135          2.353663
  31         V                 0.261304          1.755698
  32         V                 0.261304          1.755698
  33         V                 0.580281          1.949411
  34         V                 0.580281          1.949411
  35         (A2")--V          0.585928          1.792515
  36         V                 0.648283          2.489728
  37         V                 0.744478          3.485038
  38         V                 0.744478          3.485038
  39         V                 0.767741          3.482863
  40         (E")--V           0.793681          3.512141
  41         (E")--V           0.793681          3.512141
  42         V                 0.809521          3.018266
  43         V                 0.809521          3.018266
  44         (A2")--V          0.832607          3.286679
  45         V                 0.886228          3.493145
  46         V                 0.952246          2.237647
  47         V                 1.048060          3.734354
  48         V                 1.048060          3.734354
 Total kinetic energy from orbitals= 1.395588638570D+03
  Exact polarizability:  41.745   0.000  41.745   0.000  -0.000  13.221
 Approx polarizability:  36.473   0.000  36.473   0.000  -0.000  10.968
 Calling FoFJK, ICntrl=    100127 FMM=F ISym2X=1 I1Cent= 0 IOpClX= 0 NMat=1 NMatS=1 NMatT=0.
 Full mass-weighted force constant matrix:
 Low frequencies ---   -2.9880   -2.9880   -2.9844   -0.0045   -0.0024   -0.0022
 Low frequencies ---  272.7619  272.7619  453.5323
 Diagonal vibrational polarizability:
       13.5109194      13.5109191       4.0989977
 Diagonal vibrational hyperpolarizability:
        0.0000000      34.6197286      -0.0000000
 Harmonic frequencies (cm**-1), IR intensities (KM/Mole), Raman scattering
 activities (A**4/AMU), depolarization ratios for plane and unpolarized
 incident light, reduced masses (AMU), force constants (mDyne/A),
 and normal coordinates:
                      1                      2                      3
                     ?A                     ?A                     ?B
 Frequencies --    272.7619               272.7619               453.5323
 Red. masses --     31.2181                31.2181                34.9689
 Frc consts  --      1.3684                 1.3684                 4.2379
 IR Inten    --      2.9086                 2.9086                 0.0000
 Raman Activ --      5.8409                 5.8409                 9.5373
 Depolar (P) --      0.7500                 0.7500                 0.1293
 Depolar (U) --      0.8571                 0.8571                 0.2291
  Atom  AN      X      Y      Z        X      Y      Z        X      Y      Z
     1   5    -0.40   0.00   0.00     0.00   0.40  -0.00     0.00   0.00   0.00
     2  17     0.57   0.00  -0.00    -0.00   0.49   0.00    -0.00   0.58  -0.00
     3  17    -0.22  -0.46  -0.00     0.46  -0.30   0.00    -0.50  -0.29  -0.00
     4  17    -0.23   0.46  -0.00    -0.46  -0.31   0.00     0.50  -0.29  -0.00
                      4                      5                      6
                     A2"                    ?A                     ?A
 Frequencies --    477.5260               917.8898               917.8899
 Red. masses --     11.7756                12.2721                12.2721
 Frc consts  --      1.5821                 6.0919                 6.0919
 IR Inten    --     34.7327               390.0550               390.0550
 Raman Activ --      0.0000                 0.0116                 0.0116
 Depolar (P) --      0.0000                 0.7500                 0.7500
 Depolar (U) --      0.0000                 0.8571                 0.8571
  Atom  AN      X      Y      Z        X      Y      Z        X      Y      Z
     1   5     0.00   0.00   0.98     0.00   0.97  -0.00     0.97  -0.00  -0.00
     2  17     0.00  -0.00  -0.10    -0.00  -0.19   0.00    -0.02   0.00   0.00
     3  17     0.00   0.00  -0.10    -0.07  -0.06   0.00    -0.14  -0.07   0.00
     4  17    -0.00   0.00  -0.10     0.07  -0.06   0.00    -0.14   0.07   0.00

 -------------------
 - Thermochemistry -
 -------------------
 Temperature   298.150 Kelvin.  Pressure   1.00000 Atm.
 Atom     1 has atomic number  5 and mass  11.00931
 Atom     2 has atomic number 17 and mass  34.96885
 Atom     3 has atomic number 17 and mass  34.96885
 Atom     4 has atomic number 17 and mass  34.96885
 Molecular mass:   115.91586 amu.
 Principal axes and moments of inertia in atomic units:
                           1         2         3
     Eigenvalues --   587.72271 587.722711175.44542
           X            0.27077   0.96264   0.00000
           Y            0.96264  -0.27077   0.00000
           Z            0.00000   0.00000   1.00000
 This molecule is an oblate symmetric top.
 Rotational symmetry number  6.
 Warning -- assumption of classical behavior for rotation
           may cause significant error
 Rotational temperatures (Kelvin)      0.14737     0.14737     0.07369
 Rotational constants (GHZ):           3.07074     3.07074     1.53537
 Zero-point vibrational energy      19812.3 (Joules/Mol)
                                    4.73526 (Kcal/Mol)
 Warning -- explicit consideration of   4 degrees of freedom as
           vibrations may cause significant error
 Vibrational temperatures:    392.44   392.44   652.53   687.05  1320.64
          (Kelvin)           1320.64
 
 Zero-point correction=                           0.007546 (Hartree/Particle)
 Thermal correction to Energy=                    0.011892
 Thermal correction to Enthalpy=                  0.012837
 Thermal correction to Gibbs Free Energy=        -0.019955
 Sum of electronic and zero-point Energies=          -1396.525567
 Sum of electronic and thermal Energies=             -1396.521221
 Sum of electronic and thermal Enthalpies=           -1396.520276
 Sum of electronic and thermal Free Energies=        -1396.553068
 
                     E (Thermal)             CV                S
                      KCal/Mol        Cal/Mol-Kelvin    Cal/Mol-Kelvin
 Total                    7.463             13.014             69.015
 Electronic               0.000              0.000              0.000
 Translational            0.889              2.981             40.158
 Rotational               0.889              2.981             23.937
 Vibrational              5.685              7.052              4.919
 Vibration     1          0.676              1.724              1.579
 Vibration     2          0.676              1.724              1.579
 Vibration     3          0.812              1.353              0.785
 Vibration     4          0.834              1.300              0.717
                       Q            Log10(Q)             Ln(Q)
 Total Bot       0.150840D+10          9.178516         21.134314
 Total V=0       0.446154D+13         12.649485         29.126516
 Vib (Bot)       0.808872D-03         -3.092120         -7.119870
 Vib (Bot)    1  0.707533D+00         -0.150253         -0.345971
 Vib (Bot)    2  0.707533D+00         -0.150253         -0.345971
 Vib (Bot)    3  0.377028D+00         -0.423626         -0.975435
 Vib (Bot)    4  0.350977D+00         -0.454721         -1.047034
 Vib (V=0)       0.239248D+01          0.378849          0.872332
 Vib (V=0)    1  0.136637D+01          0.135569          0.312160
 Vib (V=0)    2  0.136637D+01          0.135569          0.312160
 Vib (V=0)    3  0.112622D+01          0.051623          0.118866
 Vib (V=0)    4  0.111089D+01          0.045671          0.105160
 Electronic      0.100000D+01          0.000000          0.000000
 Translational   0.490533D+08          7.690668         17.708418
 Rotational      0.380161D+05          4.579968         10.545766
 ***** Axes restored to original set *****
 -------------------------------------------------------------------
 Center     Atomic                   Forces (Hartrees/Bohr)
 Number     Number              X              Y              Z
 -------------------------------------------------------------------
      1        5           0.000000000   -0.000000000    0.000000000
      2       17          -0.000019703    0.000034127   -0.000000000
      3       17          -0.000019703   -0.000034127    0.000000000
      4       17           0.000039406   -0.000000000   -0.000000000
 -------------------------------------------------------------------
 Cartesian Forces:  Max     0.000039406 RMS     0.000019703
 FormGI is forming the generalized inverse of G from B-inverse, IUseBI=4.

 GradGradGradGradGradGradGradGradGradGradGradGradGradGradGradGradGradGrad
 Berny optimization.
 Internal  Forces:  Max     0.000039406 RMS     0.000025797
 Search for a local minimum.
 Step number   1 out of a maximum of    2
 All quantities printed in internal units (Hartrees-Bohrs-Radians)
 Second derivative matrix not updated -- analytic derivatives used.
 The second derivative matrix:
                          R1        R2        R3        A1        A2
           R1           0.22754
           R2           0.02233   0.22754
           R3           0.02233   0.02233   0.22754
           A1           0.01947   0.01947  -0.03895   0.13762
           A2           0.01947  -0.03895   0.01947  -0.06881   0.13762
           A3          -0.03895   0.01947   0.01947  -0.06881  -0.06881
           D1           0.00000  -0.00000  -0.00000   0.00000   0.00000
                          A3        D1
           A3           0.13762
           D1          -0.00000   0.08032
 ITU=  0
     Eigenvalues ---    0.08032   0.14740   0.14740   0.26424   0.26424
     Eigenvalues ---    0.27220
 Angle between quadratic step and forces=   0.00 degrees.
 Linear search not attempted -- first point.
 Iteration  1 RMS(Cart)=  0.00009477 RMS(Int)=  0.00000000
 Iteration  2 RMS(Cart)=  0.00000000 RMS(Int)=  0.00000000
 ClnCor:  largest displacement from symmetrization is 5.94D-12 for atom     1.
 Variable       Old X    -DE/DX   Delta X   Delta X   Delta X     New X
                                 (Linear)    (Quad)   (Total)
    R1        3.34734   0.00004   0.00000   0.00014   0.00014   3.34749
    R2        3.34734   0.00004   0.00000   0.00014   0.00014   3.34749
    R3        3.34734   0.00004   0.00000   0.00014   0.00014   3.34749
    A1        2.09440   0.00000   0.00000   0.00000   0.00000   2.09440
    A2        2.09440  -0.00000   0.00000   0.00000   0.00000   2.09440
    A3        2.09440  -0.00000   0.00000  -0.00000   0.00000   2.09440
    D1        3.14159  -0.00000   0.00000  -0.00000   0.00000   3.14159
         Item               Value     Threshold  Converged?
 Maximum Force            0.000039     0.000450     YES
 RMS     Force            0.000026     0.000300     YES
 Maximum Displacement     0.000145     0.001800     YES
 RMS     Displacement     0.000095     0.001200     YES
 Predicted change in Energy=-8.557233D-09
 Optimization completed.
    -- Stationary point found.
                           ----------------------------
                           !   Optimized Parameters   !
                           ! (Angstroms and Degrees)  !
 --------------------------                            --------------------------
 ! Name  Definition              Value          Derivative Info.                !
 --------------------------------------------------------------------------------
 ! R1    R(1,2)                  1.7713         -DE/DX =    0.0                 !
 ! R2    R(1,3)                  1.7713         -DE/DX =    0.0                 !
 ! R3    R(1,4)                  1.7713         -DE/DX =    0.0                 !
 ! A1    A(2,1,3)              120.0            -DE/DX =    0.0                 !
 ! A2    A(2,1,4)              120.0            -DE/DX =    0.0                 !
 ! A3    A(3,1,4)              120.0            -DE/DX =    0.0                 !
 ! D1    D(2,1,4,3)            180.0            -DE/DX =    0.0                 !
 --------------------------------------------------------------------------------
 GradGradGradGradGradGradGradGradGradGradGradGradGradGradGradGradGradGrad

 Dipole is zero, so no output in dipole orientation.

 ----------------------------------------------------------------------

 Electric dipole moment (input orientation):
 (Debye = 10**-18 statcoulomb cm , SI units = C m)
                  (au)            (Debye)         (10**-30 SI)
   Tot        0.000000D+00      0.000000D+00      0.000000D+00
   x          0.000000D+00      0.000000D+00      0.000000D+00
   y          0.000000D+00      0.000000D+00      0.000000D+00
   z          0.000000D+00      0.000000D+00      0.000000D+00

 Dipole polarizability, Alpha (input orientation).
 (esu units = cm**3 , SI units = C**2 m**2 J**-1)
 Alpha(0;0):
               (au)            (10**-24 esu)      (10**-40 SI)
   iso        0.322372D+02      0.477706D+01      0.531519D+01
   aniso      0.285248D+02      0.422694D+01      0.470310D+01
   xx         0.417454D+02      0.618603D+01      0.688289D+01
   yx         0.000000D+00      0.000000D+00      0.000000D+00
   yy         0.417454D+02      0.618603D+01      0.688289D+01
   zx         0.000000D+00      0.000000D+00      0.000000D+00
   zy         0.000000D+00      0.000000D+00      0.000000D+00
   zz         0.132207D+02      0.195910D+01      0.217979D+01

 First dipole hyperpolarizability, Beta (input orientation).
 ||, _|_  parallel and perpendicular components, (z) with respect to z axis,
 vector components x,y,z.  Values do not include the 1/n! factor of 1/2.
 (esu units = statvolt**-1 cm**4 , SI units = C**3 m**3 J**-2)
 Beta(0;0,0):
               (au)            (10**-30 esu)      (10**-50 SI)
   || (z)     0.000000D+00      0.000000D+00      0.000000D+00
   _|_(z)     0.000000D+00      0.000000D+00      0.000000D+00
   x          0.000000D+00      0.000000D+00      0.000000D+00
   y          0.000000D+00      0.000000D+00      0.000000D+00
   z          0.000000D+00      0.000000D+00      0.000000D+00
   ||         0.000000D+00      0.000000D+00      0.000000D+00
   xxx       -0.545959D+02     -0.471666D+00     -0.175054D+00
   xxy        0.000000D+00      0.000000D+00      0.000000D+00
   yxy        0.545959D+02      0.471666D+00      0.175054D+00
   yyy        0.000000D+00      0.000000D+00      0.000000D+00
   xxz        0.000000D+00      0.000000D+00      0.000000D+00
   yxz        0.000000D+00      0.000000D+00      0.000000D+00
   yyz        0.000000D+00      0.000000D+00      0.000000D+00
   zxz        0.000000D+00      0.000000D+00      0.000000D+00
   zyz        0.000000D+00      0.000000D+00      0.000000D+00
   zzz        0.000000D+00      0.000000D+00      0.000000D+00

 ----------------------------------------------------------------------
 1\1\GINC-IISERK51\Freq\RHF\3-21G\B1Cl3\GAUSSIAN\16-Jun-2025\0\\#N Geom
 =AllCheck Guess=TCheck SCRF=Check GenChk RHF/3-21G Freq\\BCl3 opt\\0,1
 \B,0.8468306,0.05459269,0.\Cl,-0.0388376025,1.5886150154,0.\Cl,-0.0388
 376025,-1.4794296354,0.\Cl,2.618167005,0.05459269,0.\\Version=EM64L-G1
 6RevB.01\HF=-1396.5331129\RMSD=1.191e-17\RMSF=1.970e-05\ZeroPoint=0.00
 75461\Thermal=0.0118923\Dipole=0.,0.,0.\DipoleDeriv=1.9773554,0.,0.,0.
 ,1.9773554,0.,0.,0.,0.5958042,-0.4827833,0.3054216,0.,0.3054216,-0.835
 4537,0.,0.,0.,-0.1986014,-0.4827833,-0.3054216,0.,-0.3054216,-0.835453
 7,0.,0.,0.,-0.1986014,-1.0117889,0.,0.,0.,-0.306448,0.,0.,0.,-0.198601
 4\Polar=41.7454287,0.,41.7454287,0.,0.,13.2206512\PolarDeriv=1.2111823
 ,0.,-1.2111839,0.,0.,0.,0.0000013,-1.2111831,0.0000013,0.,0.,0.,0.,0.,
 0.,0.,0.,0.,-7.183031,5.4573868,-0.0739282,0.,0.,0.0499174,0.8273242,-
 2.7470961,11.7420979,0.,0.,-0.0864594,0.,0.,0.,-2.8405411,4.9199616,0.
 ,-7.183031,-5.4573868,-0.0739282,0.,0.,0.0499174,-0.8273242,-2.7470961
 ,-11.7420979,0.,0.,0.0864594,0.,0.,0.,-2.8405411,-4.9199616,0.,13.1548
 792,0.,1.3590394,0.,0.,-0.0998348,0.,6.7053751,0.,0.,0.,0.,0.,0.,0.,5.
 6810823,0.,0.\HyperPolar=-54.595913,0.,54.595913,0.,0.,0.,0.,0.,0.,0.\
 Quadrupole=-1.0839164,-1.0839164,2.1678327,0.,0.,0.\PG=D03H [O(B1),3C2
 (Cl1)]\NImag=0\\0.30001415,0.,0.30001415,0.,0.,0.08598154,-0.06251756,
 0.06492965,0.,0.08451137,0.06492965,-0.13749187,0.,-0.08257693,0.17986
 299,0.,0.,-0.02866051,0.,0.,0.00954563,-0.06251757,-0.06492965,0.,0.00
 428608,0.00703441,0.,0.08451137,-0.06492965,-0.13749187,0.,-0.00703441
 ,-0.03646854,0.,0.08257693,0.17986299,0.,0.,-0.02866051,0.,0.,0.009557
 44,0.,0.,0.00954563,-0.17497902,0.,0.,-0.02627989,0.01061286,0.,-0.026
 27989,-0.01061286,0.,0.22753881,0.,-0.02503042,0.,0.02468168,-0.005902
 58,0.,-0.02468168,-0.00590258,0.,0.,0.03683556,0.,0.,-0.02866051,0.,0.
 ,0.00955744,0.,0.,0.00955744,0.,0.,0.00954563\\0.,0.,0.,0.00001970,-0.
 00003413,0.,0.00001970,0.00003413,0.,-0.00003941,0.,0.\\\@


 I HAVE NOT FAILED, I HAVE ONLY DISCOVERED 10,000
 WAYS THAT DIDN'T WORK.  -- THOMAS A. EDISON
 Job cpu time:       0 days  0 hours  0 minutes  1.1 seconds.
 Elapsed time:       0 days  0 hours  0 minutes  1.0 seconds.
 File lengths (MBytes):  RWF=      6 Int=      0 D2E=      0 Chk=      1 Scr=      1
 Normal termination of Gaussian 16 at Mon Jun 16 21:13:56 2025.
