 Entering Gaussian System, Link 0=g16
 Input=/home/gaussian/Documents/Summer_Internship/Acid_Base_adduct/Adduct/PH3-BCl3/BCl3_only_adduct_opt.com
 Output=/home/gaussian/Documents/Summer_Internship/Acid_Base_adduct/Adduct/PH3-BCl3/BCl3_only_adduct_opt.log
 Initial command:
 /usr/local/g16/l1.exe "/home/gaussian/tmp/Gau-92830.inp" -scrdir="/home/gaussian/tmp/"
 Entering Link 1 = /usr/local/g16/l1.exe PID=     92833.
  
 Copyright (c) 1988-2017, Gaussian, Inc.  All Rights Reserved.
  
 This is part of the Gaussian(R) 16 program.  It is based on
 the Gaussian(R) 09 system (copyright 2009, Gaussian, Inc.),
 the Gaussian(R) 03 system (copyright 2003, Gaussian, Inc.),
 the Gaussian(R) 98 system (copyright 1998, Gaussian, Inc.),
 the Gaussian(R) 94 system (copyright 1995, Gaussian, Inc.),
 the Gaussian 92(TM) system (copyright 1992, Gaussian, Inc.),
 the Gaussian 90(TM) system (copyright 1990, Gaussian, Inc.),
 the Gaussian 88(TM) system (copyright 1988, Gaussian, Inc.),
 the Gaussian 86(TM) system (copyright 1986, Carnegie Mellon
 University), and the Gaussian 82(TM) system (copyright 1983,
 Carnegie Mellon University). Gaussian is a federally registered
 trademark of Gaussian, Inc.
  
 This software contains proprietary and confidential information,
 including trade secrets, belonging to Gaussian, Inc.
  
 This software is provided under written license and may be
 used, copied, transmitted, or stored only in accord with that
 written license.
  
 The following legend is applicable only to US Government
 contracts under FAR:
  
                    RESTRICTED RIGHTS LEGEND
  
 Use, reproduction and disclosure by the US Government is
 subject to restrictions as set forth in subparagraphs (a)
 and (c) of the Commercial Computer Software - Restricted
 Rights clause in FAR 52.227-19.
  
 Gaussian, Inc.
 340 Quinnipiac St., Bldg. 40, Wallingford CT 06492
  
  
 ---------------------------------------------------------------
 Warning -- This program may not be used in any manner that
 competes with the business of Gaussian, Inc. or will provide
 assistance to any competitor of Gaussian, Inc.  The licensee
 of this program is prohibited from giving any competitor of
 Gaussian, Inc. access to this program.  By using this program,
 the user acknowledges that Gaussian, Inc. is engaged in the
 business of creating and licensing software in the field of
 computational chemistry and represents and warrants to the
 licensee that it is not a competitor of Gaussian, Inc. and that
 it will not use this program in any manner prohibited above.
 ---------------------------------------------------------------
  

 Cite this work as:
 Gaussian 16, Revision B.01,
 M. J. Frisch, G. W. Trucks, H. B. Schlegel, G. E. Scuseria, 
 M. A. Robb, J. R. Cheeseman, G. Scalmani, V. Barone, 
 G. A. Petersson, H. Nakatsuji, X. Li, M. Caricato, A. V. Marenich, 
 J. Bloino, B. G. Janesko, R. Gomperts, B. Mennucci, H. P. Hratchian, 
 J. V. Ortiz, A. F. Izmaylov, J. L. Sonnenberg, D. Williams-Young, 
 F. Ding, F. Lipparini, F. Egidi, J. Goings, B. Peng, A. Petrone, 
 T. Henderson, D. Ranasinghe, V. G. Zakrzewski, J. Gao, N. Rega, 
 G. Zheng, W. Liang, M. Hada, M. Ehara, K. Toyota, R. Fukuda, 
 J. Hasegawa, M. Ishida, T. Nakajima, Y. Honda, O. Kitao, H. Nakai, 
 T. Vreven, K. Throssell, J. A. Montgomery, Jr., J. E. Peralta, 
 F. Ogliaro, M. J. Bearpark, J. J. Heyd, E. N. Brothers, K. N. Kudin, 
 V. N. Staroverov, T. A. Keith, R. Kobayashi, J. Normand, 
 K. Raghavachari, A. P. Rendell, J. C. Burant, S. S. Iyengar, 
 J. Tomasi, M. Cossi, J. M. Millam, M. Klene, C. Adamo, R. Cammi, 
 J. W. Ochterski, R. L. Martin, K. Morokuma, O. Farkas, 
 J. B. Foresman, and D. J. Fox, Gaussian, Inc., Wallingford CT, 2016.
 
 ******************************************
 Gaussian 16:  EM64L-G16RevB.01 20-Dec-2017
                17-Jun-2025 
 ******************************************
 %chk=BCl3_only_adduct_opt.chk
 -------------------------------------
 # hf/3-21g pop=full geom=connectivity
 -------------------------------------
 1/38=1,57=2,172=1/1;
 2/12=2,17=6,18=5,40=1/2;
 3/5=5,11=9,25=1,30=1/1,2,3;
 4//1;
 5/5=2,38=5/2;
 6/7=3,28=1/1;
 99/5=1,9=1/99;
 -------------------
 Title Card Required
 -------------------
 Symbolic Z-matrix:
 Charge =  0 Multiplicity = 1
 B                     0.        0.       -0.19806 
 Cl                    0.        1.81223  -0.67096 
 Cl                    1.56944  -0.90612  -0.67096 
 Cl                   -1.56944  -0.90612  -0.67096 
 
                          Input orientation:                          
 ---------------------------------------------------------------------
 Center     Atomic      Atomic             Coordinates (Angstroms)
 Number     Number       Type             X           Y           Z
 ---------------------------------------------------------------------
      1          5           0        0.000000    0.000000   -0.198057
      2         17           0        0.000000    1.812230   -0.670957
      3         17           0        1.569437   -0.906115   -0.670957
      4         17           0       -1.569437   -0.906115   -0.670957
 ---------------------------------------------------------------------
                    Distance matrix (angstroms):
                    1          2          3          4
     1  B    0.000000
     2  Cl   1.872915   0.000000
     3  Cl   1.872915   3.138874   0.000000
     4  Cl   1.872915   3.138874   3.138874   0.000000
 Stoichiometry    BCl3
 Framework group  C3V[C3(B),3SGV(Cl)]
 Deg. of freedom     2
 Full point group                 C3V     NOp   6
 Largest Abelian subgroup         CS      NOp   2
 Largest concise Abelian subgroup CS      NOp   2
                         Standard orientation:                         
 ---------------------------------------------------------------------
 Center     Atomic      Atomic             Coordinates (Angstroms)
 Number     Number       Type             X           Y           Z
 ---------------------------------------------------------------------
      1          5           0        0.000000    0.000000    0.430677
      2         17           0       -0.000000    1.812230   -0.042223
      3         17           0        1.569437   -0.906115   -0.042223
      4         17           0       -1.569437   -0.906115   -0.042223
 ---------------------------------------------------------------------
 Rotational constants (GHZ):           2.8962526           2.8962526           1.4668575
 Standard basis: 3-21G (6D, 7F)
 There are    30 symmetry adapted cartesian basis functions of A'  symmetry.
 There are    18 symmetry adapted cartesian basis functions of A"  symmetry.
 There are    30 symmetry adapted basis functions of A'  symmetry.
 There are    18 symmetry adapted basis functions of A"  symmetry.
    48 basis functions,    96 primitive gaussians,    48 cartesian basis functions
    28 alpha electrons       28 beta electrons
       nuclear repulsion energy       218.2141789693 Hartrees.
 NAtoms=    4 NActive=    4 NUniq=    2 SFac= 4.00D+00 NAtFMM=   60 NAOKFM=F Big=F
 Integral buffers will be    131072 words long.
 Raffenetti 1 integral format.
 Two-electron integral symmetry is turned on.
 One-electron integrals computed using PRISM.
 NBasis=    48 RedAO= T EigKep=  1.67D-02  NBF=    30    18
 NBsUse=    48 1.00D-06 EigRej= -1.00D+00 NBFU=    30    18
 ExpMin= 1.24D-01 ExpMax= 1.38D+03 ExpMxC= 1.38D+03 IAcc=3 IRadAn=         5 AccDes= 0.00D+00
 Harris functional with IExCor=  205 and IRadAn=       5 diagonalized for initial guess.
 HarFok:  IExCor=  205 AccDes= 0.00D+00 IRadAn=         5 IDoV= 1 UseB2=F ITyADJ=14
 ICtDFT=  3500011 ScaDFX=  1.000000  1.000000  1.000000  1.000000
 FoFCou: FMM=F IPFlag=           0 FMFlag=      100000 FMFlg1=           0
         NFxFlg=           0 DoJE=T BraDBF=F KetDBF=T FulRan=T
         wScrn=  0.000000 ICntrl=       500 IOpCl=  0 I1Cent=   200000004 NGrid=           0
         NMat0=    1 NMatS0=      1 NMatT0=    0 NMatD0=    1 NMtDS0=    0 NMtDT0=    0
 Petite list used in FoFCou.
 Initial guess orbital symmetries:
       Occupied  (E) (E) (A1) (E) (E) (A1) (E) (E) (A1) (A2) (E)
                 (E) (A1) (E) (E) (A1) (A1) (E) (E) (A1) (E) (E)
                 (A1) (E) (E) (E) (E) (A2)
       Virtual   (A1) (A1) (E) (E) (E) (E) (A1) (A1) (E) (E) (E)
                 (E) (A1) (A1) (E) (E) (A2) (E) (E) (A1)
 The electronic state of the initial guess is 1-A1.
 Keep R1 ints in memory in symmetry-blocked form, NReq=1504345.
 Requested convergence on RMS density matrix=1.00D-08 within 128 cycles.
 Requested convergence on MAX density matrix=1.00D-06.
 Requested convergence on             energy=1.00D-06.
 No special actions if energy rises.
 SCF Done:  E(RHF) =  -1396.49524523     A.U. after   11 cycles
            NFock= 11  Conv=0.12D-08     -V/T= 2.0009

 **********************************************************************

            Population analysis using the SCF Density.

 **********************************************************************

 Orbital symmetries:
       Occupied  (E) (E) (A1) (E) (E) (A1) (E) (E) (A1) (E) (E)
                 (A1) (A2) (E) (E) (A1) (A1) (E) (E) (A1) (E) (E)
                 (A1) (E) (E) (E) (E) (A2)
       Virtual   (A1) (A1) (E) (E) (E) (E) (A1) (A1) (E) (E) (E)
                 (E) (A1) (A1) (E) (E) (A2) (E) (E) (A1)
 The electronic state is 1-A1.
 Alpha  occ. eigenvalues -- -104.15010-104.15010-104.14982 -10.54423 -10.54423
 Alpha  occ. eigenvalues --  -10.54331  -8.00699  -8.00699  -8.00677  -8.00335
 Alpha  occ. eigenvalues --   -8.00335  -8.00328  -8.00313  -8.00288  -8.00288
 Alpha  occ. eigenvalues --   -7.81495  -1.18190  -1.12677  -1.12677  -0.70720
 Alpha  occ. eigenvalues --   -0.59882  -0.59882  -0.55585  -0.50199  -0.50199
 Alpha  occ. eigenvalues --   -0.48685  -0.48685  -0.47630
 Alpha virt. eigenvalues --   -0.02210   0.15990   0.19397   0.19397   0.56856
 Alpha virt. eigenvalues --    0.56856   0.57656   0.64498   0.73681   0.73681
 Alpha virt. eigenvalues --    0.74886   0.74886   0.76019   0.81305   0.83975
 Alpha virt. eigenvalues --    0.83975   0.88701   1.01575   1.01575   1.10423
     Molecular Orbital Coefficients:
                           1         2         3         4         5
                        (E)--O    (E)--O    (A1)--O   (E)--O    (E)--O
     Eigenvalues --  -104.15010-104.15010-104.14982 -10.54423 -10.54423
   1 1   B  1S         -0.00000   0.00000   0.00013   0.00000   0.00000
   2        2S         -0.00000   0.00000   0.00156   0.00000   0.00000
   3        2PX         0.00000   0.00012   0.00000  -0.00077   0.00000
   4        2PY         0.00012   0.00000   0.00000   0.00000  -0.00077
   5        2PZ         0.00000   0.00000  -0.00012   0.00000  -0.00000
   6        3S          0.00000   0.00000  -0.00884   0.00000  -0.00000
   7        3PX         0.00000  -0.00482   0.00000   0.02799   0.00000
   8        3PY        -0.00482   0.00000  -0.00000   0.00000   0.02799
   9        3PZ        -0.00000   0.00000   0.00200   0.00000   0.00000
  10 2   Cl 1S          0.80497   0.00000   0.56921   0.00000  -0.24977
  11        2S          0.04339   0.00000   0.03059   0.00000   0.80247
  12        2PX         0.00000  -0.00003   0.00000   0.00009   0.00000
  13        2PY        -0.00022   0.00000  -0.00008   0.00000  -0.00709
  14        2PZ         0.00006   0.00000   0.00003   0.00000   0.00259
  15        3S         -0.01609   0.00000  -0.01082   0.00000   0.11896
  16        3PX         0.00000   0.00011   0.00000  -0.00052   0.00000
  17        3PY         0.00086   0.00000   0.00022   0.00000  -0.00621
  18        3PZ        -0.00023   0.00000  -0.00006   0.00000   0.00180
  19        4S          0.01167   0.00000   0.00783   0.00000  -0.06822
  20        4PX         0.00000   0.00046   0.00000  -0.00282   0.00000
  21        4PY        -0.00319   0.00000  -0.00209   0.00000   0.01863
  22        4PZ         0.00102   0.00000   0.00027   0.00000  -0.00600
  23 3   Cl 1S         -0.40248   0.69712   0.56921  -0.21631   0.12488
  24        2S         -0.02170   0.03758   0.03059   0.69496  -0.40123
  25        2PX         0.00008  -0.00017  -0.00007  -0.00529   0.00311
  26        2PY        -0.00007   0.00008   0.00004   0.00311  -0.00171
  27        2PZ        -0.00003   0.00005   0.00003   0.00224  -0.00129
  28        3S          0.00805  -0.01393  -0.01082   0.10302  -0.05948
  29        3PX        -0.00033   0.00067   0.00019  -0.00479   0.00246
  30        3PY         0.00030  -0.00033  -0.00011   0.00246  -0.00194
  31        3PZ         0.00012  -0.00020  -0.00006   0.00156  -0.00090
  32        4S         -0.00583   0.01010   0.00783  -0.05908   0.03411
  33        4PX         0.00158  -0.00228  -0.00181   0.01327  -0.00929
  34        4PY        -0.00045   0.00158   0.00105  -0.00929   0.00254
  35        4PZ        -0.00051   0.00088   0.00027  -0.00519   0.00300
  36 4   Cl 1S         -0.40248  -0.69712   0.56921   0.21631   0.12488
  37        2S         -0.02170  -0.03758   0.03059  -0.69496  -0.40123
  38        2PX        -0.00008  -0.00017   0.00007  -0.00529  -0.00311
  39        2PY        -0.00007  -0.00008   0.00004  -0.00311  -0.00171
  40        2PZ        -0.00003  -0.00005   0.00003  -0.00224  -0.00129
  41        3S          0.00805   0.01393  -0.01082  -0.10302  -0.05948
  42        3PX         0.00033   0.00067  -0.00019  -0.00479  -0.00246
  43        3PY         0.00030   0.00033  -0.00011  -0.00246  -0.00194
  44        3PZ         0.00012   0.00020  -0.00006  -0.00156  -0.00090
  45        4S         -0.00583  -0.01010   0.00783   0.05908   0.03411
  46        4PX        -0.00158  -0.00228   0.00181   0.01327   0.00929
  47        4PY        -0.00045  -0.00158   0.00105   0.00929   0.00254
  48        4PZ        -0.00051  -0.00088   0.00027   0.00519   0.00300
                           6         7         8         9        10
                        (A1)--O   (E)--O    (E)--O    (A1)--O   (E)--O
     Eigenvalues --   -10.54331  -8.00699  -8.00699  -8.00677  -8.00335
   1 1   B  1S         -0.00116   0.00000  -0.00000   0.00197  -0.00000
   2        2S         -0.00916   0.00000  -0.00000   0.00100  -0.00000
   3        2PX         0.00000   0.00156   0.00000   0.00000   0.00000
   4        2PY        -0.00000   0.00000   0.00156   0.00000  -0.00080
   5        2PZ         0.00076   0.00000   0.00000  -0.00054   0.00000
   6        3S          0.05247   0.00000   0.00000  -0.01836   0.00000
   7        3PX         0.00000  -0.01164   0.00000   0.00000   0.00000
   8        3PY         0.00000   0.00000  -0.01164  -0.00000   0.00609
   9        3PZ        -0.01190   0.00000  -0.00000   0.00171  -0.00000
  10 2   Cl 1S         -0.17669   0.00000  -0.00290  -0.00196   0.00009
  11        2S          0.56793   0.00000   0.01008   0.00670  -0.00025
  12        2PX         0.00000   0.00993   0.00000   0.00000   0.00000
  13        2PY        -0.00530   0.00000   0.75752   0.53351   0.23532
  14        2PZ         0.00190   0.00000  -0.23950  -0.17681   0.74954
  15        3S          0.08133   0.00000  -0.00689  -0.00192  -0.00010
  16        3PX         0.00000   0.00127   0.00000   0.00000   0.00000
  17        3PY        -0.00236   0.00000   0.06516   0.04457   0.01937
  18        3PZ         0.00069   0.00000  -0.02047  -0.01502   0.06110
  19        4S         -0.04651   0.00000   0.01462   0.00553  -0.00248
  20        4PX         0.00000  -0.00022   0.00000   0.00000   0.00000
  21        4PY         0.01273   0.00000  -0.02754  -0.01631  -0.00508
  22        4PZ        -0.00164   0.00000   0.00828   0.00565  -0.01946
  23 3   Cl 1S         -0.17669  -0.00251   0.00145  -0.00196  -0.00004
  24        2S          0.56793   0.00873  -0.00504   0.00670   0.00013
  25        2PX        -0.00459   0.57062  -0.32372   0.46203  -0.04794
  26        2PY         0.00265  -0.32372   0.19682  -0.26675   0.15230
  27        2PZ         0.00190  -0.20742   0.11975  -0.17681  -0.37477
  28        3S          0.08133  -0.00597   0.00345  -0.00192   0.00005
  29        3PX        -0.00205   0.04919  -0.02767   0.03860  -0.00379
  30        3PY         0.00118  -0.02767   0.01724  -0.02229   0.01280
  31        3PZ         0.00069  -0.01773   0.01024  -0.01502  -0.03055
  32        4S         -0.04651   0.01266  -0.00731   0.00553   0.00124
  33        4PX         0.01102  -0.02071   0.01183  -0.01413  -0.00004
  34        4PY        -0.00637   0.01183  -0.00705   0.00816  -0.00516
  35        4PZ        -0.00164   0.00717  -0.00414   0.00565   0.00973
  36 4   Cl 1S         -0.17669   0.00251   0.00145  -0.00196  -0.00004
  37        2S          0.56793  -0.00873  -0.00504   0.00670   0.00013
  38        2PX         0.00459   0.57062   0.32372  -0.46203   0.04794
  39        2PY         0.00265   0.32372   0.19682  -0.26675   0.15230
  40        2PZ         0.00190   0.20742   0.11975  -0.17681  -0.37477
  41        3S          0.08133   0.00597   0.00345  -0.00192   0.00005
  42        3PX         0.00205   0.04919   0.02767  -0.03860   0.00379
  43        3PY         0.00118   0.02767   0.01724  -0.02229   0.01280
  44        3PZ         0.00069   0.01773   0.01024  -0.01502  -0.03055
  45        4S         -0.04651  -0.01266  -0.00731   0.00553   0.00124
  46        4PX        -0.01102  -0.02071  -0.01183   0.01413   0.00004
  47        4PY        -0.00637  -0.01183  -0.00705   0.00816  -0.00516
  48        4PZ        -0.00164  -0.00717  -0.00414   0.00565   0.00973
                          11        12        13        14        15
                        (E)--O    (A1)--O   (A2)--O   (E)--O    (E)--O
     Eigenvalues --    -8.00335  -8.00328  -8.00313  -8.00288  -8.00288
   1 1   B  1S          0.00000   0.00089   0.00000  -0.00000   0.00000
   2        2S          0.00000   0.00189   0.00000  -0.00000   0.00000
   3        2PX        -0.00080   0.00000   0.00000   0.00000  -0.00115
   4        2PY         0.00000  -0.00000   0.00000  -0.00115   0.00000
   5        2PZ         0.00000  -0.00133   0.00000   0.00000   0.00000
   6        3S          0.00000  -0.00740   0.00000   0.00000   0.00000
   7        3PX         0.00609   0.00000  -0.00000   0.00000   0.00791
   8        3PY         0.00000   0.00000   0.00000   0.00791   0.00000
   9        3PZ         0.00000   0.00942   0.00000  -0.00000   0.00000
  10 2   Cl 1S          0.00000   0.00004   0.00000  -0.00001   0.00000
  11        2S          0.00000  -0.00015   0.00000   0.00009   0.00000
  12        2PX         0.12462   0.00000   0.56240   0.00000   0.78575
  13        2PY         0.00000   0.17705   0.00000  -0.04711   0.00000
  14        2PZ         0.00000   0.53394   0.00000  -0.11599   0.00000
  15        3S          0.00000  -0.00039   0.00000  -0.00055   0.00000
  16        3PX         0.01061   0.00000   0.04641   0.00000   0.06324
  17        3PY         0.00000   0.01417   0.00000  -0.00324   0.00000
  18        3PZ         0.00000   0.04338   0.00000  -0.00909   0.00000
  19        4S          0.00000   0.00286   0.00000  -0.00248   0.00000
  20        4PX        -0.00518   0.00000  -0.01583   0.00000  -0.01946
  21        4PY         0.00000  -0.00603   0.00000   0.00152   0.00000
  22        4PZ         0.00000  -0.01392   0.00000   0.00132   0.00000
  23 3   Cl 1S          0.00007   0.00004  -0.00000   0.00000  -0.00001
  24        2S         -0.00022  -0.00015   0.00000  -0.00004   0.00007
  25        2PX         0.20765   0.15333  -0.28120   0.36064   0.16110
  26        2PY        -0.04794  -0.08853  -0.48705   0.57754   0.36064
  27        2PZ         0.64912   0.53394   0.00000   0.05799  -0.10045
  28        3S         -0.00009  -0.00039  -0.00000   0.00028  -0.00048
  29        3PX         0.01718   0.01227  -0.02321   0.02878   0.01338
  30        3PY        -0.00379  -0.00709  -0.04019   0.04662   0.02878
  31        3PZ         0.05292   0.04338   0.00000   0.00455  -0.00787
  32        4S         -0.00214   0.00286   0.00000   0.00124  -0.00215
  33        4PX        -0.00511  -0.00522   0.00792  -0.00908  -0.00372
  34        4PY        -0.00004   0.00301   0.01371  -0.01421  -0.00908
  35        4PZ        -0.01685  -0.01392  -0.00000  -0.00066   0.00115
  36 4   Cl 1S         -0.00007   0.00004   0.00000   0.00000   0.00001
  37        2S          0.00022  -0.00015  -0.00000  -0.00004  -0.00007
  38        2PX         0.20765  -0.15333  -0.28120  -0.36064   0.16110
  39        2PY         0.04794  -0.08853   0.48705   0.57754  -0.36064
  40        2PZ        -0.64912   0.53394  -0.00000   0.05799   0.10045
  41        3S          0.00009  -0.00039   0.00000   0.00028   0.00048
  42        3PX         0.01718  -0.01227  -0.02321  -0.02878   0.01338
  43        3PY         0.00379  -0.00709   0.04019   0.04662  -0.02878
  44        3PZ        -0.05292   0.04338  -0.00000   0.00455   0.00787
  45        4S          0.00214   0.00286  -0.00000   0.00124   0.00215
  46        4PX        -0.00511   0.00522   0.00792   0.00908  -0.00372
  47        4PY         0.00004   0.00301  -0.01371  -0.01421   0.00908
  48        4PZ         0.01685  -0.01392   0.00000  -0.00066  -0.00115
                          16        17        18        19        20
                        (A1)--O   (A1)--O   (E)--O    (E)--O    (A1)--O
     Eigenvalues --    -7.81495  -1.18190  -1.12677  -1.12677  -0.70720
   1 1   B  1S          0.98910  -0.09127   0.00000  -0.00000  -0.15738
   2        2S          0.09144   0.12574   0.00000   0.00000   0.20825
   3        2PX         0.00000   0.00000   0.11861   0.00000   0.00000
   4        2PY        -0.00000  -0.00000   0.00000   0.11861  -0.00000
   5        2PZ        -0.00098  -0.03602   0.00000  -0.00000  -0.05164
   6        3S         -0.06374   0.11700   0.00000   0.00000   0.48013
   7        3PX         0.00000   0.00000  -0.01348   0.00000   0.00000
   8        3PY         0.00000   0.00000   0.00000  -0.01348  -0.00000
   9        3PZ         0.01100  -0.01171   0.00000  -0.00000  -0.05973
  10 2   Cl 1S         -0.00012   0.04184   0.00000   0.06458  -0.02022
  11        2S          0.00059  -0.24537   0.00000  -0.37990   0.12190
  12        2PX         0.00000   0.00000  -0.00570   0.00000   0.00000
  13        2PY        -0.00192   0.02962   0.00000   0.02580   0.11285
  14        2PZ         0.00011  -0.00587   0.00000  -0.00834  -0.01904
  15        3S         -0.00440   0.31589   0.00000   0.47595  -0.14266
  16        3PX         0.00000   0.00000   0.01250   0.00000   0.00000
  17        3PY         0.00073  -0.06108   0.00000  -0.05122  -0.24290
  18        3PZ         0.00030   0.01099   0.00000   0.01634   0.03876
  19        4S          0.01723   0.22926   0.00000   0.42450  -0.25581
  20        4PX         0.00000   0.00000   0.00490   0.00000   0.00000
  21        4PY        -0.00813  -0.02225   0.00000  -0.05023  -0.09891
  22        4PZ        -0.00056   0.00952   0.00000   0.01618   0.02504
  23 3   Cl 1S         -0.00012   0.04184   0.05593  -0.03229  -0.02022
  24        2S          0.00059  -0.24537  -0.32900   0.18995   0.12190
  25        2PX        -0.00166   0.02565   0.01792  -0.01364   0.09773
  26        2PY         0.00096  -0.01481  -0.01364   0.00217  -0.05642
  27        2PZ         0.00011  -0.00587  -0.00722   0.00417  -0.01904
  28        3S         -0.00440   0.31589   0.41219  -0.23798  -0.14266
  29        3PX         0.00063  -0.05290  -0.03529   0.02759  -0.21036
  30        3PY        -0.00037   0.03054   0.02759  -0.00343   0.12145
  31        3PZ         0.00030   0.01099   0.01415  -0.00817   0.03876
  32        4S          0.01723   0.22926   0.36763  -0.21225  -0.25581
  33        4PX        -0.00704  -0.01927  -0.03645   0.02388  -0.08566
  34        4PY         0.00406   0.01112   0.02388  -0.00888   0.04946
  35        4PZ        -0.00056   0.00952   0.01401  -0.00809   0.02504
  36 4   Cl 1S         -0.00012   0.04184  -0.05593  -0.03229  -0.02022
  37        2S          0.00059  -0.24537   0.32900   0.18995   0.12190
  38        2PX         0.00166  -0.02565   0.01792   0.01364  -0.09773
  39        2PY         0.00096  -0.01481   0.01364   0.00217  -0.05642
  40        2PZ         0.00011  -0.00587   0.00722   0.00417  -0.01904
  41        3S         -0.00440   0.31589  -0.41219  -0.23798  -0.14266
  42        3PX        -0.00063   0.05290  -0.03529  -0.02759   0.21036
  43        3PY        -0.00037   0.03054  -0.02759  -0.00343   0.12145
  44        3PZ         0.00030   0.01099  -0.01415  -0.00817   0.03876
  45        4S          0.01723   0.22926  -0.36763  -0.21225  -0.25581
  46        4PX         0.00704   0.01927  -0.03645  -0.02388   0.08566
  47        4PY         0.00406   0.01112  -0.02388  -0.00888   0.04946
  48        4PZ        -0.00056   0.00952  -0.01401  -0.00809   0.02504
                          21        22        23        24        25
                        (E)--O    (E)--O    (A1)--O   (E)--O    (E)--O
     Eigenvalues --    -0.59882  -0.59882  -0.55585  -0.50199  -0.50199
   1 1   B  1S          0.00000   0.00000  -0.02543   0.00000   0.00000
   2        2S          0.00000  -0.00000   0.04941   0.00000  -0.00000
   3        2PX         0.28640   0.00000   0.00000  -0.11280   0.00000
   4        2PY         0.00000  -0.28640  -0.00000   0.00000   0.11280
   5        2PZ         0.00000  -0.00000   0.15643   0.00000   0.00000
   6        3S          0.00000  -0.00000   0.01397   0.00000  -0.00000
   7        3PX         0.18514   0.00000   0.00000  -0.00444   0.00000
   8        3PY         0.00000  -0.18514  -0.00000   0.00000   0.00444
   9        3PZ         0.00000  -0.00000   0.17134   0.00000   0.00000
  10 2   Cl 1S          0.00000   0.01425  -0.00063   0.00000  -0.00294
  11        2S          0.00000  -0.08661   0.00361   0.00000   0.01783
  12        2PX        -0.11525   0.00000   0.00000  -0.15796   0.00000
  13        2PY         0.00000  -0.15436  -0.03566   0.00000   0.05648
  14        2PZ         0.00000   0.04791  -0.14133   0.00000  -0.15496
  15        3S          0.00000   0.10464  -0.01648   0.00000  -0.03206
  16        3PX         0.25297   0.00000   0.00000   0.34400   0.00000
  17        3PY         0.00000   0.33251   0.07952   0.00000  -0.12124
  18        3PZ         0.00000  -0.10364   0.30782   0.00000   0.33535
  19        4S          0.00000   0.19771   0.03468   0.00000  -0.00501
  20        4PX         0.16451   0.00000   0.00000   0.29617   0.00000
  21        4PY         0.00000   0.20088   0.03650   0.00000  -0.10181
  22        4PZ         0.00000  -0.05561   0.23431   0.00000   0.29064
  23 3   Cl 1S         -0.01234  -0.00713  -0.00063   0.00254   0.00147
  24        2S          0.07501   0.04331   0.00361  -0.01544  -0.00892
  25        2PX         0.08696   0.11674  -0.03088  -0.08185   0.04395
  26        2PY        -0.11674   0.04785   0.01783  -0.04395   0.13259
  27        2PZ        -0.04149  -0.02396  -0.14133   0.13420   0.07748
  28        3S         -0.09062  -0.05232  -0.01648   0.02777   0.01603
  29        3PX        -0.18614  -0.25352   0.06887   0.17693  -0.09646
  30        3PY         0.25352  -0.10660  -0.03976   0.09646  -0.28831
  31        3PZ         0.08976   0.05182   0.30782  -0.29042  -0.16767
  32        4S         -0.17122  -0.09886   0.03468   0.00434   0.00251
  33        4PX        -0.10953  -0.15822   0.03161   0.15040  -0.08416
  34        4PY         0.15822  -0.07316  -0.01825   0.08416  -0.24758
  35        4PZ         0.04816   0.02781   0.23431  -0.25170  -0.14532
  36 4   Cl 1S          0.01234  -0.00713  -0.00063  -0.00254   0.00147
  37        2S         -0.07501   0.04331   0.00361   0.01544  -0.00892
  38        2PX         0.08696  -0.11674   0.03088  -0.08185  -0.04395
  39        2PY         0.11674   0.04785   0.01783   0.04395   0.13259
  40        2PZ         0.04149  -0.02396  -0.14133  -0.13420   0.07748
  41        3S          0.09062  -0.05232  -0.01648  -0.02777   0.01603
  42        3PX        -0.18614   0.25352  -0.06887   0.17693   0.09646
  43        3PY        -0.25352  -0.10660  -0.03976  -0.09646  -0.28831
  44        3PZ        -0.08976   0.05182   0.30782   0.29042  -0.16767
  45        4S          0.17122  -0.09886   0.03468  -0.00434   0.00251
  46        4PX        -0.10953   0.15822  -0.03161   0.15040   0.08416
  47        4PY        -0.15822  -0.07316  -0.01825  -0.08416  -0.24758
  48        4PZ        -0.04816   0.02781   0.23431   0.25170  -0.14532
                          26        27        28        29        30
                        (E)--O    (E)--O    (A2)--O   (A1)--V   (A1)--V
     Eigenvalues --    -0.48685  -0.48685  -0.47630  -0.02210   0.15990
   1 1   B  1S          0.00000  -0.00000   0.00000  -0.10119  -0.18694
   2        2S          0.00000   0.00000   0.00000   0.08919   0.16109
   3        2PX        -0.07895   0.00000  -0.00000   0.00000   0.00000
   4        2PY         0.00000  -0.07895   0.00000  -0.00000  -0.00000
   5        2PZ         0.00000  -0.00000   0.00000   0.37623  -0.28630
   6        3S          0.00000   0.00000   0.00000   0.69602   1.99350
   7        3PX         0.07965   0.00000   0.00000   0.00000   0.00000
   8        3PY         0.00000   0.07965   0.00000  -0.00000  -0.00000
   9        3PZ         0.00000  -0.00000   0.00000   0.56811  -0.82563
  10 2   Cl 1S          0.00000   0.00047   0.00000  -0.00576  -0.01511
  11        2S          0.00000  -0.00263   0.00000   0.03552   0.09623
  12        2PX        -0.11214   0.00000  -0.17039   0.00000   0.00000
  13        2PY         0.00000  -0.13240   0.00000  -0.04076  -0.10191
  14        2PZ         0.00000  -0.15946   0.00000   0.08233  -0.00927
  15        3S          0.00000   0.01491   0.00000  -0.05503  -0.07036
  16        3PX         0.24686   0.00000   0.37512   0.00000   0.00000
  17        3PY         0.00000   0.28901   0.00000   0.09040   0.21090
  18        3PZ         0.00000   0.34861   0.00000  -0.17876   0.02258
  19        4S          0.00000  -0.05434   0.00000  -0.08036  -0.63567
  20        4PX         0.19218   0.00000   0.30985   0.00000   0.00000
  21        4PY         0.00000   0.26705   0.00000   0.11770   0.69072
  22        4PZ         0.00000   0.28703   0.00000  -0.26871   0.01591
  23 3   Cl 1S          0.00041  -0.00024   0.00000  -0.00576  -0.01511
  24        2S         -0.00227   0.00131  -0.00000   0.03552   0.09623
  25        2PX        -0.12733   0.00877   0.08519  -0.03530  -0.08826
  26        2PY         0.00877  -0.11721   0.14756   0.02038   0.05096
  27        2PZ        -0.13810   0.07973  -0.00000   0.08233  -0.00927
  28        3S          0.01291  -0.00745   0.00000  -0.05503  -0.07036
  29        3PX         0.27847  -0.01825  -0.18756   0.07829   0.18264
  30        3PY        -0.01825   0.25740  -0.32486  -0.04520  -0.10545
  31        3PZ         0.30190  -0.17430   0.00000  -0.17876   0.02258
  32        4S         -0.04706   0.02717  -0.00000  -0.08036  -0.63567
  33        4PX         0.24834  -0.03242  -0.15492   0.10193   0.59818
  34        4PY        -0.03242   0.21090  -0.26833  -0.05885  -0.34536
  35        4PZ         0.24858  -0.14352   0.00000  -0.26871   0.01591
  36 4   Cl 1S         -0.00041  -0.00024  -0.00000  -0.00576  -0.01511
  37        2S          0.00227   0.00131   0.00000   0.03552   0.09623
  38        2PX        -0.12733  -0.00877   0.08519   0.03530   0.08826
  39        2PY        -0.00877  -0.11721  -0.14756   0.02038   0.05096
  40        2PZ         0.13810   0.07973   0.00000   0.08233  -0.00927
  41        3S         -0.01291  -0.00745  -0.00000  -0.05503  -0.07036
  42        3PX         0.27847   0.01825  -0.18756  -0.07829  -0.18264
  43        3PY         0.01825   0.25740   0.32486  -0.04520  -0.10545
  44        3PZ        -0.30190  -0.17430  -0.00000  -0.17876   0.02258
  45        4S          0.04706   0.02717   0.00000  -0.08036  -0.63567
  46        4PX         0.24834   0.03242  -0.15492  -0.10193  -0.59818
  47        4PY         0.03242   0.21090   0.26833  -0.05885  -0.34536
  48        4PZ        -0.24858  -0.14352  -0.00000  -0.26871   0.01591
                          31        32        33        34        35
                        (E)--V    (E)--V    (E)--V    (E)--V    (A1)--V
     Eigenvalues --     0.19397   0.19397   0.56856   0.56856   0.57656
   1 1   B  1S          0.00000  -0.00000   0.00000  -0.00000   0.03521
   2        2S          0.00000   0.00000   0.00000   0.00000  -0.26801
   3        2PX         0.48239   0.00000  -1.07835   0.00000   0.00000
   4        2PY         0.00000   0.48239   0.00000  -1.07835  -0.00000
   5        2PZ         0.00000  -0.00000   0.00000   0.00000  -1.06947
   6        3S          0.00000   0.00000   0.00000   0.00000  -0.13740
   7        3PX         1.69451   0.00000   1.82084   0.00000   0.00000
   8        3PY         0.00000   1.69451   0.00000   1.82084   0.00000
   9        3PZ         0.00000  -0.00000   0.00000  -0.00000   1.20894
  10 2   Cl 1S          0.00000  -0.01959   0.00000  -0.00740  -0.00355
  11        2S          0.00000   0.12531   0.00000   0.04810   0.02110
  12        2PX         0.05511   0.00000   0.06352   0.00000   0.00000
  13        2PY         0.00000  -0.09253   0.00000   0.07042   0.00065
  14        2PZ         0.00000   0.05028   0.00000   0.02103   0.04580
  15        3S          0.00000  -0.08334   0.00000  -0.14226  -0.11370
  16        3PX        -0.11544   0.00000  -0.18829   0.00000   0.00000
  17        3PY         0.00000   0.18249   0.00000  -0.17373  -0.00228
  18        3PZ         0.00000  -0.10628   0.00000  -0.07983  -0.14112
  19        4S          0.00000  -1.02602   0.00000  -0.65049   0.27069
  20        4PX        -0.37222   0.00000  -0.18116   0.00000   0.00000
  21        4PY         0.00000   0.83257   0.00000   0.33417  -0.12661
  22        4PZ         0.00000  -0.32836   0.00000  -0.07395  -0.06147
  23 3   Cl 1S         -0.01696   0.00979  -0.00641   0.00370  -0.00355
  24        2S          0.10852  -0.06266   0.04166  -0.02405   0.02110
  25        2PX        -0.05562   0.06393   0.06870  -0.00299   0.00056
  26        2PY         0.06393   0.01820  -0.00299   0.06524  -0.00032
  27        2PZ         0.04354  -0.02514   0.01821  -0.01051   0.04580
  28        3S         -0.07217   0.04167  -0.12320   0.07113  -0.11370
  29        3PX         0.10800  -0.12901  -0.17737  -0.00631  -0.00198
  30        3PY        -0.12901  -0.04096  -0.00631  -0.18465   0.00114
  31        3PZ        -0.09204   0.05314  -0.06913   0.03991  -0.14112
  32        4S         -0.88856   0.51301  -0.56334   0.32524   0.27069
  33        4PX         0.53138  -0.52169   0.20534  -0.22315  -0.10965
  34        4PY        -0.52169  -0.07102  -0.22315  -0.05233   0.06331
  35        4PZ        -0.28437   0.16418  -0.06404   0.03697  -0.06147
  36 4   Cl 1S          0.01696   0.00979   0.00641   0.00370  -0.00355
  37        2S         -0.10852  -0.06266  -0.04166  -0.02405   0.02110
  38        2PX        -0.05562  -0.06393   0.06870   0.00299  -0.00056
  39        2PY        -0.06393   0.01820   0.00299   0.06524  -0.00032
  40        2PZ        -0.04354  -0.02514  -0.01821  -0.01051   0.04580
  41        3S          0.07217   0.04167   0.12320   0.07113  -0.11370
  42        3PX         0.10800   0.12901  -0.17737   0.00631   0.00198
  43        3PY         0.12901  -0.04096   0.00631  -0.18465   0.00114
  44        3PZ         0.09204   0.05314   0.06913   0.03991  -0.14112
  45        4S          0.88856   0.51301   0.56334   0.32524   0.27069
  46        4PX         0.53138   0.52169   0.20534   0.22315   0.10965
  47        4PY         0.52169  -0.07102   0.22315  -0.05233   0.06331
  48        4PZ         0.28437   0.16418   0.06404   0.03697  -0.06147
                          36        37        38        39        40
                        (A1)--V   (E)--V    (E)--V    (E)--V    (E)--V
     Eigenvalues --     0.64498   0.73681   0.73681   0.74886   0.74886
   1 1   B  1S          0.06439  -0.00000   0.00000  -0.00000   0.00000
   2        2S         -0.70236   0.00000   0.00000  -0.00000   0.00000
   3        2PX         0.00000   0.00000   0.13612   0.00000   0.10567
   4        2PY        -0.00000   0.13612   0.00000  -0.10567   0.00000
   5        2PZ         0.15610  -0.00000   0.00000  -0.00000   0.00000
   6        3S         -0.15719  -0.00000   0.00000  -0.00000   0.00000
   7        3PX         0.00000   0.00000  -0.78821   0.00000  -0.81855
   8        3PY         0.00000  -0.78821   0.00000   0.81855   0.00000
   9        3PZ         0.07374   0.00000   0.00000   0.00000   0.00000
  10 2   Cl 1S         -0.03329  -0.04010   0.00000   0.00253   0.00000
  11        2S          0.20276   0.24362   0.00000  -0.01330   0.00000
  12        2PX         0.00000   0.00000  -0.00701   0.00000   0.24000
  13        2PY         0.01673   0.17261   0.00000   0.08744   0.00000
  14        2PZ        -0.05091  -0.08985   0.00000   0.12327   0.00000
  15        3S         -0.95061  -1.14617   0.00000   0.14288   0.00000
  16        3PX         0.00000   0.00000   0.00657   0.00000  -0.84336
  17        3PY        -0.01914  -0.60139   0.00000  -0.30431   0.00000
  18        3PZ         0.16401   0.30660   0.00000  -0.42483   0.00000
  19        4S          0.99300   1.48199   0.00000  -0.54104   0.00000
  20        4PX         0.00000   0.00000   0.17044   0.00000   0.93212
  21        4PY        -0.16289   0.37454   0.00000   0.51000   0.00000
  22        4PZ        -0.10765  -0.18911   0.00000   0.30226   0.00000
  23 3   Cl 1S         -0.03329   0.02005  -0.03473  -0.00126  -0.00219
  24        2S          0.20276  -0.12181   0.21098   0.00665   0.01152
  25        2PX         0.01449  -0.07778   0.12770  -0.14178  -0.00558
  26        2PY        -0.00837   0.03790  -0.07778  -0.15814   0.14178
  27        2PZ        -0.05091   0.04492  -0.07781  -0.06164  -0.10676
  28        3S         -0.95061   0.57309  -0.99262  -0.07144  -0.12374
  29        3PX        -0.01658   0.26326  -0.44940   0.49696   0.01739
  30        3PY         0.00957  -0.14542   0.26326   0.55644  -0.49696
  31        3PZ         0.16401  -0.15330   0.26553   0.21241   0.36791
  32        4S          0.99300  -0.74100   1.28344   0.27052   0.46856
  33        4PX        -0.14106  -0.08838   0.32352  -0.62445  -0.14947
  34        4PY         0.08144   0.22147  -0.08838  -0.57159   0.62445
  35        4PZ        -0.10765   0.09455  -0.16377  -0.15113  -0.26177
  36 4   Cl 1S         -0.03329   0.02005   0.03473  -0.00126   0.00219
  37        2S          0.20276  -0.12181  -0.21098   0.00665  -0.01152
  38        2PX        -0.01449   0.07778   0.12770   0.14178  -0.00558
  39        2PY        -0.00837   0.03790   0.07778  -0.15814  -0.14178
  40        2PZ        -0.05091   0.04492   0.07781  -0.06164   0.10676
  41        3S         -0.95061   0.57309   0.99262  -0.07144   0.12374
  42        3PX         0.01658  -0.26326  -0.44940  -0.49696   0.01739
  43        3PY         0.00957  -0.14542  -0.26326   0.55644   0.49696
  44        3PZ         0.16401  -0.15330  -0.26553   0.21241  -0.36791
  45        4S          0.99300  -0.74100  -1.28344   0.27052  -0.46856
  46        4PX         0.14106   0.08838   0.32352   0.62445  -0.14947
  47        4PY         0.08144   0.22147   0.08838  -0.57159  -0.62445
  48        4PZ        -0.10765   0.09455   0.16377  -0.15113   0.26177
                          41        42        43        44        45
                        (A1)--V   (A1)--V   (E)--V    (E)--V    (A2)--V
     Eigenvalues --     0.76019   0.81305   0.83975   0.83975   0.88701
   1 1   B  1S          0.00118  -0.00091   0.00000   0.00000   0.00000
   2        2S          0.06553  -0.11426  -0.00000   0.00000   0.00000
   3        2PX         0.00000   0.00000   0.00000  -0.23961   0.00000
   4        2PY        -0.00000   0.00000  -0.23961   0.00000   0.00000
   5        2PZ         0.08885  -0.23517  -0.00000   0.00000   0.00000
   6        3S          1.22896   1.33022   0.00000   0.00000   0.00000
   7        3PX         0.00000   0.00000   0.00000   1.36429  -0.00000
   8        3PY         0.00000  -0.00000   1.36429   0.00000   0.00000
   9        3PZ        -0.59544   0.41080  -0.00000   0.00000   0.00000
  10 2   Cl 1S         -0.00333   0.01026   0.00994   0.00000   0.00000
  11        2S          0.02300  -0.06041  -0.05743   0.00000   0.00000
  12        2PX         0.00000   0.00000   0.00000  -0.12163   0.20044
  13        2PY         0.19112   0.06866  -0.03837   0.00000   0.00000
  14        2PZ         0.06279  -0.17628  -0.23874   0.00000   0.00000
  15        3S          0.00803   0.38569   0.39348   0.00000   0.00000
  16        3PX         0.00000   0.00000   0.00000   0.45418  -0.73102
  17        3PY        -0.68074  -0.25669   0.14240   0.00000   0.00000
  18        3PZ        -0.22189   0.63503   0.85796   0.00000   0.00000
  19        4S         -0.35152  -0.64142  -1.05112   0.00000   0.00000
  20        4PX         0.00000   0.00000   0.00000  -0.72336   0.82217
  21        4PY         0.94976   0.47953   0.19580   0.00000   0.00000
  22        4PZ         0.23338  -0.78852  -1.06033   0.00000   0.00000
  23 3   Cl 1S         -0.00333   0.01026  -0.00497   0.00861  -0.00000
  24        2S          0.02300  -0.06041   0.02871  -0.04973   0.00000
  25        2PX         0.16552   0.05946  -0.03605  -0.05918  -0.10022
  26        2PY        -0.09556  -0.03433  -0.10081  -0.03605  -0.17359
  27        2PZ         0.06279  -0.17628   0.11937  -0.20675   0.00000
  28        3S          0.00803   0.38569  -0.19674   0.34076  -0.00000
  29        3PX        -0.58954  -0.22230   0.13500   0.22034   0.36551
  30        3PY         0.34037   0.12834   0.37623   0.13500   0.63308
  31        3PZ        -0.22189   0.63503  -0.42898   0.74301  -0.00000
  32        4S         -0.35152  -0.64142   0.52556  -0.91030   0.00000
  33        4PX         0.82251   0.41529  -0.39800  -0.03399  -0.41109
  34        4PY        -0.47488  -0.23977  -0.49357  -0.39800  -0.71202
  35        4PZ         0.23338  -0.78852   0.53016  -0.91827   0.00000
  36 4   Cl 1S         -0.00333   0.01026  -0.00497  -0.00861   0.00000
  37        2S          0.02300  -0.06041   0.02871   0.04973  -0.00000
  38        2PX        -0.16552  -0.05946   0.03605  -0.05918  -0.10022
  39        2PY        -0.09556  -0.03433  -0.10081   0.03605   0.17359
  40        2PZ         0.06279  -0.17628   0.11937   0.20675  -0.00000
  41        3S          0.00803   0.38569  -0.19674  -0.34076   0.00000
  42        3PX         0.58954   0.22230  -0.13500   0.22034   0.36551
  43        3PY         0.34037   0.12834   0.37623  -0.13500  -0.63308
  44        3PZ        -0.22189   0.63503  -0.42898  -0.74301   0.00000
  45        4S         -0.35152  -0.64142   0.52556   0.91030  -0.00000
  46        4PX        -0.82251  -0.41529   0.39800  -0.03399  -0.41109
  47        4PY        -0.47488  -0.23977  -0.49357   0.39800   0.71202
  48        4PZ         0.23338  -0.78852   0.53016   0.91827  -0.00000
                          46        47        48
                        (E)--V    (E)--V    (A1)--V
     Eigenvalues --     1.01575   1.01575   1.10423
   1 1   B  1S          0.00000   0.00000  -0.08129
   2        2S          0.00000   0.00000  -1.88904
   3        2PX        -0.13916   0.00000   0.00000
   4        2PY         0.00000  -0.13916  -0.00000
   5        2PZ         0.00000  -0.00000   0.20052
   6        3S          0.00000  -0.00000   4.80042
   7        3PX        -1.14433   0.00000   0.00000
   8        3PY         0.00000  -1.14433  -0.00000
   9        3PZ         0.00000   0.00000  -1.33489
  10 2   Cl 1S          0.00000  -0.03860   0.01632
  11        2S          0.00000   0.23188  -0.09097
  12        2PX        -0.06600   0.00000   0.00000
  13        2PY         0.00000  -0.20952   0.00188
  14        2PZ         0.00000   0.03475   0.03051
  15        3S          0.00000  -1.37962   0.77992
  16        3PX         0.23813   0.00000   0.00000
  17        3PY         0.00000   0.82049  -0.01776
  18        3PZ         0.00000  -0.13986  -0.12963
  19        4S          0.00000   2.12121  -1.99140
  20        4PX        -0.12114   0.00000   0.00000
  21        4PY         0.00000  -1.49204   0.94539
  22        4PZ         0.00000   0.33734   0.15097
  23 3   Cl 1S         -0.03343   0.01930   0.01632
  24        2S          0.20081  -0.11594  -0.09097
  25        2PX        -0.17364   0.06215   0.00163
  26        2PY         0.06215  -0.10188  -0.00094
  27        2PZ         0.03009  -0.01737   0.03051
  28        3S         -1.19479   0.68981   0.77992
  29        3PX         0.67490  -0.25217  -0.01538
  30        3PY        -0.25217   0.38372   0.00888
  31        3PZ        -0.12112   0.06993  -0.12963
  32        4S          1.83702  -1.06060  -1.99140
  33        4PX        -1.14931   0.59361   0.81873
  34        4PY         0.59361  -0.46387  -0.47270
  35        4PZ         0.29214  -0.16867   0.15097
  36 4   Cl 1S          0.03343   0.01930   0.01632
  37        2S         -0.20081  -0.11594  -0.09097
  38        2PX        -0.17364  -0.06215  -0.00163
  39        2PY        -0.06215  -0.10188  -0.00094
  40        2PZ        -0.03009  -0.01737   0.03051
  41        3S          1.19479   0.68981   0.77992
  42        3PX         0.67490   0.25217   0.01538
  43        3PY         0.25217   0.38372   0.00888
  44        3PZ         0.12112   0.06993  -0.12963
  45        4S         -1.83702  -1.06060  -1.99140
  46        4PX        -1.14931  -0.59361  -0.81873
  47        4PY        -0.59361  -0.46387  -0.47270
  48        4PZ        -0.29214  -0.16867   0.15097
     Density Matrix:
                           1         2         3         4         5
   1 1   B  1S          2.02415
   2        2S          0.08990   0.14014
   3        2PX         0.00000  -0.00000   0.23012
   4        2PY         0.00000   0.00000  -0.00000   0.23012
   5        2PZ         0.01292  -0.01531   0.00000   0.00000   0.05688
   6        3S         -0.29950   0.21806   0.00000  -0.00000  -0.05340
   7        3PX        -0.00000  -0.00000   0.09117  -0.00000  -0.00000
   8        3PY         0.00000  -0.00000  -0.00000   0.09117  -0.00000
   9        3PZ         0.03403  -0.00862  -0.00000   0.00000   0.06055
  10 2   Cl 1S         -0.00093   0.00702   0.00000   0.00699  -0.00153
  11        2S          0.00612  -0.02076  -0.00000  -0.03727   0.00706
  12        2PX        -0.00000   0.00000  -0.01600   0.00000  -0.00000
  13        2PY        -0.04048   0.05241   0.00000   0.13028  -0.02600
  14        2PZ         0.01472  -0.02172  -0.00000  -0.04088  -0.04305
  15        3S         -0.02082   0.01606   0.00000   0.04318  -0.01304
  16        3PX         0.00000  -0.00000   0.03112  -0.00000   0.00000
  17        3PY         0.08522  -0.10835  -0.00000  -0.27541   0.05427
  18        3PZ        -0.02925   0.04950   0.00000   0.08371   0.09141
  19        4S          0.07114  -0.04142  -0.00000  -0.00493   0.02063
  20        4PX         0.00000  -0.00000  -0.00171  -0.00000   0.00000
  21        4PY         0.01715  -0.04497  -0.00000  -0.19223   0.02331
  22        4PZ        -0.02265   0.03586   0.00000   0.05600   0.07006
  23 3   Cl 1S         -0.00093   0.00702   0.00606  -0.00350  -0.00153
  24        2S          0.00612  -0.02076  -0.03228   0.01864   0.00706
  25        2PX        -0.03506   0.04539   0.09371  -0.06334  -0.02252
  26        2PY         0.02024  -0.02620  -0.06334   0.02057   0.01300
  27        2PZ         0.01472  -0.02172  -0.03541   0.02044  -0.04305
  28        3S         -0.02082   0.01606   0.03739  -0.02159  -0.01304
  29        3PX         0.07380  -0.09383  -0.19878   0.13273   0.04700
  30        3PY        -0.04261   0.05418   0.13273  -0.04551  -0.02714
  31        3PZ        -0.02925   0.04950   0.07249  -0.04185   0.09141
  32        4S          0.07114  -0.04142  -0.00427   0.00247   0.02063
  33        4PX         0.01485  -0.03894  -0.14460   0.08250   0.02018
  34        4PY        -0.00858   0.02248   0.08250  -0.04934  -0.01165
  35        4PZ        -0.02265   0.03586   0.04850  -0.02800   0.07006
  36 4   Cl 1S         -0.00093   0.00702  -0.00606  -0.00350  -0.00153
  37        2S          0.00612  -0.02076   0.03228   0.01864   0.00706
  38        2PX         0.03506  -0.04539   0.09371   0.06334   0.02252
  39        2PY         0.02024  -0.02620   0.06334   0.02057   0.01300
  40        2PZ         0.01472  -0.02172   0.03541   0.02044  -0.04305
  41        3S         -0.02082   0.01606  -0.03739  -0.02159  -0.01304
  42        3PX        -0.07380   0.09383  -0.19878  -0.13273  -0.04700
  43        3PY        -0.04261   0.05418  -0.13273  -0.04551  -0.02714
  44        3PZ        -0.02925   0.04950  -0.07249  -0.04185   0.09141
  45        4S          0.07114  -0.04142   0.00427   0.00247   0.02063
  46        4PX        -0.01485   0.03894  -0.14460  -0.08250  -0.02018
  47        4PY        -0.00858   0.02248  -0.08250  -0.04934  -0.01165
  48        4PZ        -0.02265   0.03586  -0.04850  -0.02800   0.07006
                           6         7         8         9        10
   6        3S          0.50338
   7        3PX         0.00000   0.08373
   8        3PY         0.00000  -0.00000   0.08373
   9        3PZ        -0.05820  -0.00000   0.00000   0.06684
  10 2   Cl 1S         -0.03816  -0.00000  -0.02864   0.00769   2.14425
  11        2S          0.11849   0.00000   0.08632  -0.02094  -0.57406
  12        2PX         0.00000  -0.04526   0.00000  -0.00000  -0.00000
  13        2PY         0.09178   0.00000   0.01995  -0.02115  -0.00502
  14        2PZ        -0.02483  -0.00000  -0.03128  -0.03661   0.00193
  15        3S         -0.05417  -0.00000  -0.04252   0.00191  -0.02945
  16        3PX        -0.00000   0.13067  -0.00000   0.00000   0.00000
  17        3PY        -0.24751  -0.00000  -0.07846   0.05819   0.01349
  18        3PZ         0.04833   0.00000   0.09763   0.10135  -0.00491
  19        4S         -0.19849  -0.00000  -0.09769   0.03866   0.16803
  20        4PX        -0.00000   0.08824  -0.00000   0.00000  -0.00000
  21        4PY        -0.09607  -0.00000  -0.02971   0.02419  -0.01892
  22        4PZ         0.03271   0.00000   0.06771   0.07686   0.00400
  23 3   Cl 1S         -0.03816  -0.02480   0.01432   0.00769   0.00001
  24        2S          0.11849   0.07475  -0.04316  -0.02094  -0.00001
  25        2PX         0.07948   0.00365  -0.02824  -0.01831  -0.00026
  26        2PY        -0.04589  -0.02824  -0.02896   0.01057   0.00153
  27        2PZ        -0.02483  -0.02709   0.01564  -0.03661  -0.00013
  28        3S         -0.05417  -0.03682   0.02126   0.00191   0.00149
  29        3PX        -0.21435  -0.02618   0.09056   0.05039   0.00007
  30        3PY         0.12376   0.09056   0.07839  -0.02909  -0.00296
  31        3PZ         0.04833   0.08455  -0.04881   0.10135   0.00053
  32        4S         -0.19849  -0.08460   0.04885   0.03866  -0.00180
  33        4PX        -0.08320  -0.00022   0.05107   0.02095   0.00207
  34        4PY         0.04803   0.05107   0.05875  -0.01209  -0.00118
  35        4PZ         0.03271   0.05864  -0.03385   0.07686  -0.00148
  36 4   Cl 1S         -0.03816   0.02480   0.01432   0.00769   0.00001
  37        2S          0.11849  -0.07475  -0.04316  -0.02094  -0.00001
  38        2PX        -0.07948   0.00365   0.02824   0.01831   0.00026
  39        2PY        -0.04589   0.02824  -0.02896   0.01057   0.00153
  40        2PZ        -0.02483   0.02709   0.01564  -0.03661  -0.00013
  41        3S         -0.05417   0.03682   0.02126   0.00191   0.00149
  42        3PX         0.21435  -0.02618  -0.09056  -0.05039  -0.00007
  43        3PY         0.12376  -0.09056   0.07839  -0.02909  -0.00296
  44        3PZ         0.04833  -0.08455  -0.04881   0.10135   0.00053
  45        4S         -0.19849   0.08460   0.04885   0.03866  -0.00180
  46        4PX         0.08320  -0.00022  -0.05107  -0.02095  -0.00207
  47        4PY         0.04803  -0.05107   0.05875  -0.01209  -0.00118
  48        4PZ         0.03271  -0.05864  -0.03385   0.07686  -0.00148
                          11        12        13        14        15
  11        2S          2.39337
  12        2PX         0.00000   2.05841
  13        2PY         0.02738  -0.00000   2.01516
  14        2PZ        -0.01087   0.00000   0.01614   2.04233
  15        3S         -0.28982  -0.00000  -0.04276   0.01812   0.76070
  16        3PX        -0.00000  -0.19608   0.00000  -0.00000   0.00000
  17        3PY        -0.06386   0.00000  -0.09880  -0.03648   0.06233
  18        3PZ         0.02493  -0.00000  -0.03626  -0.15876  -0.03066
  19        4S         -0.69175  -0.00000  -0.04242   0.01844   0.63613
  20        4PX         0.00000  -0.32992   0.00000  -0.00000   0.00000
  21        4PY         0.02858   0.00000  -0.23724  -0.03512   0.02884
  22        4PZ        -0.00180  -0.00000  -0.03120  -0.30485  -0.01702
  23 3   Cl 1S         -0.00001   0.00120  -0.00099  -0.00013   0.00149
  24        2S         -0.00088  -0.00779   0.00699   0.00071  -0.00245
  25        2PX         0.00216   0.00510  -0.00801  -0.00040   0.00042
  26        2PY        -0.01024  -0.01076   0.01594  -0.00203   0.00397
  27        2PZ         0.00071  -0.00196   0.00067  -0.01099   0.00137
  28        3S         -0.00245   0.00364  -0.00162   0.00137   0.00115
  29        3PX        -0.00365  -0.01094   0.01721   0.00048   0.00363
  30        3PY         0.02207   0.02411  -0.03445   0.00378  -0.01393
  31        3PZ        -0.00220   0.00365  -0.00172   0.02391  -0.00586
  32        4S          0.00554   0.04079  -0.03772  -0.01195  -0.00490
  33        4PX        -0.00708  -0.02339   0.02831   0.01120   0.00481
  34        4PY         0.01280   0.03676  -0.05054   0.00501  -0.00847
  35        4PZ         0.00294   0.01025   0.00153   0.02618  -0.00518
  36 4   Cl 1S         -0.00001  -0.00120  -0.00099  -0.00013   0.00149
  37        2S         -0.00088   0.00779   0.00699   0.00071  -0.00245
  38        2PX        -0.00216   0.00510   0.00801   0.00040  -0.00042
  39        2PY        -0.01024   0.01076   0.01594  -0.00203   0.00397
  40        2PZ         0.00071   0.00196   0.00067  -0.01099   0.00137
  41        3S         -0.00245  -0.00364  -0.00162   0.00137   0.00115
  42        3PX         0.00365  -0.01094  -0.01721  -0.00048  -0.00363
  43        3PY         0.02207  -0.02411  -0.03445   0.00378  -0.01393
  44        3PZ        -0.00220  -0.00365  -0.00172   0.02391  -0.00586
  45        4S          0.00554  -0.04079  -0.03772  -0.01195  -0.00490
  46        4PX         0.00708  -0.02339  -0.02831  -0.01120  -0.00481
  47        4PY         0.01280  -0.03676  -0.05054   0.00501  -0.00847
  48        4PZ         0.00294  -0.01025   0.00153   0.02618  -0.00518
                          16        17        18        19        20
  16        3PX         0.78081
  17        3PY        -0.00000   0.57466
  18        3PZ         0.00000   0.07799   0.69543
  19        4S          0.00000   0.16310  -0.06288   0.69810
  20        4PX         0.61043  -0.00000   0.00000   0.00000   0.49682
  21        4PY        -0.00000   0.36863   0.08947   0.04660  -0.00000
  22        4PZ         0.00000   0.08125   0.54936  -0.03326   0.00000
  23 3   Cl 1S         -0.00253   0.00155   0.00053  -0.00180   0.00001
  24        2S          0.01729  -0.01419  -0.00220   0.00554   0.00754
  25        2PX        -0.01069   0.01706   0.00034  -0.01227  -0.01558
  26        2PY         0.02396  -0.03471   0.00402   0.05419   0.03225
  27        2PZ         0.00352  -0.00148   0.02391  -0.01195   0.00994
  28        3S         -0.01025   0.01011  -0.00586  -0.00490  -0.00493
  29        3PX         0.02348  -0.03914   0.00102   0.01371   0.03406
  30        3PY        -0.05766   0.07937  -0.00625  -0.12097  -0.06732
  31        3PZ        -0.00491   0.00401  -0.05227   0.04131  -0.02656
  32        4S         -0.09790   0.07236   0.04131   0.01624  -0.06780
  33        4PX         0.05362  -0.05675  -0.03345  -0.00053   0.05202
  34        4PY        -0.07861   0.10570  -0.01136  -0.07799  -0.07663
  35        4PZ        -0.02591  -0.00454  -0.05715   0.02852  -0.03741
  36 4   Cl 1S          0.00253   0.00155   0.00053  -0.00180  -0.00001
  37        2S         -0.01729  -0.01419  -0.00220   0.00554  -0.00754
  38        2PX        -0.01069  -0.01706  -0.00034   0.01227  -0.01558
  39        2PY        -0.02396  -0.03471   0.00402   0.05419  -0.03225
  40        2PZ        -0.00352  -0.00148   0.02391  -0.01195  -0.00994
  41        3S          0.01025   0.01011  -0.00586  -0.00490   0.00493
  42        3PX         0.02348   0.03914  -0.00102  -0.01371   0.03406
  43        3PY         0.05766   0.07937  -0.00625  -0.12097   0.06732
  44        3PZ         0.00491   0.00401  -0.05227   0.04131   0.02656
  45        4S          0.09790   0.07236   0.04131   0.01624   0.06780
  46        4PX         0.05362   0.05675   0.03345   0.00053   0.05202
  47        4PY         0.07861   0.10570  -0.01136  -0.07799   0.07663
  48        4PZ         0.02591  -0.00454  -0.05715   0.02852   0.03741
                          21        22        23        24        25
  21        4PY         0.27570
  22        4PZ         0.08135   0.45309
  23 3   Cl 1S          0.00238  -0.00148   2.14425
  24        2S         -0.01253   0.00294  -0.57406   2.39337
  25        2PX         0.02380   0.00645  -0.00435   0.02371   2.02598
  26        2PY        -0.05835   0.00811   0.00251  -0.01369   0.01873
  27        2PZ         0.00720   0.02618   0.00193  -0.01087   0.01397
  28        3S          0.00840  -0.00518  -0.02945  -0.28982  -0.03703
  29        3PX        -0.04546  -0.01689   0.01168  -0.05530  -0.12312
  30        3PY         0.12525  -0.02017  -0.00674   0.03193  -0.04212
  31        3PZ        -0.02329  -0.05715  -0.00491   0.02493  -0.03140
  32        4S          0.03853   0.02852   0.16803  -0.69175  -0.03674
  33        4PX        -0.04614  -0.03876  -0.01639   0.02476  -0.26041
  34        4PY         0.12290  -0.02082   0.00946  -0.01429  -0.04013
  35        4PZ        -0.02316  -0.05900   0.00400  -0.00180  -0.02702
  36 4   Cl 1S          0.00238  -0.00148   0.00001  -0.00001  -0.00146
  37        2S         -0.01253   0.00294  -0.00001  -0.00088   0.00995
  38        2PX        -0.02380  -0.00645   0.00146  -0.00995   0.02135
  39        2PY        -0.05835   0.00811  -0.00054   0.00325  -0.00138
  40        2PZ         0.00720   0.02618  -0.00013   0.00071   0.00156
  41        3S          0.00840  -0.00518   0.00149  -0.00245  -0.00323
  42        3PX         0.04546   0.01689  -0.00260   0.02094  -0.04647
  43        3PY         0.12525  -0.02017   0.00142  -0.00788   0.00330
  44        3PZ        -0.02329  -0.05715   0.00053  -0.00220  -0.00332
  45        4S          0.03853   0.02852  -0.00180   0.00554  -0.05306
  46        4PX         0.04614   0.03876  -0.00206   0.01463  -0.07193
  47        4PY         0.12290  -0.02082  -0.00120  -0.00026  -0.00028
  48        4PZ        -0.02316  -0.05900  -0.00148   0.00294  -0.00380
                          26        27        28        29        30
  26        2PY         2.04760
  27        2PZ        -0.00807   2.04233
  28        3S          0.02138   0.01812   0.76070
  29        3PX        -0.04212  -0.03159   0.05398   0.62620
  30        3PY        -0.17176   0.01824  -0.03117   0.08927   0.72927
  31        3PZ         0.01813  -0.15876  -0.03066   0.06755  -0.03900
  32        4S          0.02121   0.01844   0.63613   0.14125  -0.08155
  33        4PX        -0.04013  -0.03042   0.02498   0.42908   0.10470
  34        4PY        -0.30675   0.01756  -0.01442   0.10470   0.54998
  35        4PZ         0.01560  -0.30485  -0.01702   0.07036  -0.04062
  36 4   Cl 1S         -0.00054  -0.00013   0.00149   0.00260   0.00142
  37        2S          0.00325   0.00071  -0.00245  -0.02094  -0.00788
  38        2PX         0.00138  -0.00156   0.00323  -0.04647  -0.00330
  39        2PY        -0.00031   0.00136  -0.00234   0.00360   0.00107
  40        2PZ         0.00136  -0.01099   0.00137  -0.00304  -0.00231
  41        3S         -0.00234   0.00137   0.00115   0.01388   0.00382
  42        3PX        -0.00360   0.00304  -0.01388   0.10731   0.00926
  43        3PY         0.00107  -0.00231   0.00382  -0.00926  -0.00446
  44        3PZ        -0.00230   0.02391  -0.00586   0.00592   0.00225
  45        4S         -0.01646  -0.01195  -0.00490   0.11162   0.04861
  46        4PX        -0.00873  -0.00126  -0.00974   0.15129   0.02222
  47        4PY        -0.00200  -0.01221   0.00007   0.00036   0.00802
  48        4PZ        -0.00964   0.02618  -0.00518   0.00902   0.02471
                          31        32        33        34        35
  31        3PZ         0.69543
  32        4S         -0.06288   0.69810
  33        4PX         0.07748   0.04036   0.33098
  34        4PY        -0.04474  -0.02330   0.09575   0.44154
  35        4PZ         0.54936  -0.03326   0.07045  -0.04068   0.45309
  36 4   Cl 1S          0.00053  -0.00180   0.00206  -0.00120  -0.00148
  37        2S         -0.00220   0.00554  -0.01463  -0.00026   0.00294
  38        2PX         0.00332   0.05306  -0.07193   0.00028   0.00380
  39        2PY        -0.00230  -0.01646   0.00873  -0.00200  -0.00964
  40        2PZ         0.02391  -0.01195   0.00126  -0.01221   0.02618
  41        3S         -0.00586  -0.00490   0.00974   0.00007  -0.00518
  42        3PX        -0.00592  -0.11162   0.15129  -0.00036  -0.00902
  43        3PY         0.00225   0.04861  -0.02222   0.00802   0.02471
  44        3PZ        -0.05227   0.04131  -0.00689   0.03465  -0.05715
  45        4S          0.04131   0.01624   0.06727   0.03945   0.02852
  46        4PX         0.00689  -0.06727   0.15835   0.01525   0.00135
  47        4PY         0.03465   0.03945  -0.01525   0.01658   0.04397
  48        4PZ        -0.05715   0.02852  -0.00135   0.04397  -0.05900
                          36        37        38        39        40
  36 4   Cl 1S          2.14425
  37        2S         -0.57406   2.39337
  38        2PX         0.00435  -0.02371   2.02598
  39        2PY         0.00251  -0.01369  -0.01873   2.04760
  40        2PZ         0.00193  -0.01087  -0.01397  -0.00807   2.04233
  41        3S         -0.02945  -0.28982   0.03703   0.02138   0.01812
  42        3PX        -0.01168   0.05530  -0.12312   0.04212   0.03159
  43        3PY        -0.00674   0.03193   0.04212  -0.17176   0.01824
  44        3PZ        -0.00491   0.02493   0.03140   0.01813  -0.15876
  45        4S          0.16803  -0.69175   0.03674   0.02121   0.01844
  46        4PX         0.01639  -0.02476  -0.26041   0.04013   0.03042
  47        4PY         0.00946  -0.01429   0.04013  -0.30675   0.01756
  48        4PZ         0.00400  -0.00180   0.02702   0.01560  -0.30485
                          41        42        43        44        45
  41        3S          0.76070
  42        3PX        -0.05398   0.62620
  43        3PY        -0.03117  -0.08927   0.72927
  44        3PZ        -0.03066  -0.06755  -0.03900   0.69543
  45        4S          0.63613  -0.14125  -0.08155  -0.06288   0.69810
  46        4PX        -0.02498   0.42908  -0.10470  -0.07748  -0.04036
  47        4PY        -0.01442  -0.10470   0.54998  -0.04474  -0.02330
  48        4PZ        -0.01702  -0.07036  -0.04062   0.54936  -0.03326
                          46        47        48
  46        4PX         0.33098
  47        4PY        -0.09575   0.44154
  48        4PZ        -0.07045  -0.04068   0.45309
    Full Mulliken population analysis:
                           1         2         3         4         5
   1 1   B  1S          2.02415
   2        2S          0.01644   0.14014
   3        2PX         0.00000   0.00000   0.23012
   4        2PY         0.00000   0.00000  -0.00000   0.23012
   5        2PZ         0.00000   0.00000   0.00000   0.00000   0.05688
   6        3S         -0.05207   0.16907   0.00000   0.00000   0.00000
   7        3PX         0.00000   0.00000   0.05026  -0.00000   0.00000
   8        3PY         0.00000   0.00000   0.00000   0.05026   0.00000
   9        3PZ         0.00000   0.00000   0.00000   0.00000   0.03338
  10 2   Cl 1S         -0.00000   0.00000   0.00000   0.00001   0.00000
  11        2S          0.00000  -0.00007  -0.00000  -0.00036  -0.00002
  12        2PX         0.00000  -0.00000  -0.00002  -0.00000  -0.00000
  13        2PY         0.00000  -0.00016  -0.00000  -0.00111  -0.00006
  14        2PZ         0.00000  -0.00002  -0.00000  -0.00010  -0.00001
  15        3S         -0.00003   0.00096   0.00000   0.00472   0.00037
  16        3PX        -0.00000   0.00000   0.00107   0.00000   0.00000
  17        3PY        -0.00040   0.01143   0.00000   0.04708   0.00291
  18        3PZ        -0.00004   0.00136   0.00000   0.00448   0.00186
  19        4S          0.00204  -0.00805  -0.00000  -0.00098  -0.00107
  20        4PX        -0.00000   0.00000  -0.00024   0.00000   0.00000
  21        4PY        -0.00132   0.01754   0.00000   0.05209   0.00251
  22        4PZ        -0.00046   0.00365   0.00000   0.00603   0.00797
  23 3   Cl 1S         -0.00000   0.00000   0.00000   0.00000   0.00000
  24        2S          0.00000  -0.00007  -0.00027  -0.00009  -0.00002
  25        2PX         0.00000  -0.00012  -0.00058  -0.00026  -0.00005
  26        2PY         0.00000  -0.00004  -0.00026  -0.00003  -0.00002
  27        2PZ         0.00000  -0.00002  -0.00008  -0.00003  -0.00001
  28        3S         -0.00003   0.00096   0.00354   0.00118   0.00037
  29        3PX        -0.00030   0.00858   0.02378   0.01180   0.00218
  30        3PY        -0.00010   0.00286   0.01180   0.00077   0.00073
  31        3PZ        -0.00004   0.00136   0.00336   0.00112   0.00186
  32        4S          0.00204  -0.00805  -0.00073  -0.00024  -0.00107
  33        4PX        -0.00099   0.01316   0.02426   0.01475   0.00188
  34        4PY        -0.00033   0.00439   0.01475  -0.00191   0.00063
  35        4PZ        -0.00046   0.00365   0.00452   0.00151   0.00797
  36 4   Cl 1S         -0.00000   0.00000   0.00000   0.00000   0.00000
  37        2S          0.00000  -0.00007  -0.00027  -0.00009  -0.00002
  38        2PX         0.00000  -0.00012  -0.00058  -0.00026  -0.00005
  39        2PY         0.00000  -0.00004  -0.00026  -0.00003  -0.00002
  40        2PZ         0.00000  -0.00002  -0.00008  -0.00003  -0.00001
  41        3S         -0.00003   0.00096   0.00354   0.00118   0.00037
  42        3PX        -0.00030   0.00858   0.02378   0.01180   0.00218
  43        3PY        -0.00010   0.00286   0.01180   0.00077   0.00073
  44        3PZ        -0.00004   0.00136   0.00336   0.00112   0.00186
  45        4S          0.00204  -0.00805  -0.00073  -0.00024  -0.00107
  46        4PX        -0.00099   0.01316   0.02426   0.01475   0.00188
  47        4PY        -0.00033   0.00439   0.01475  -0.00191   0.00063
  48        4PZ        -0.00046   0.00365   0.00452   0.00151   0.00797
                           6         7         8         9        10
   6        3S          0.50338
   7        3PX         0.00000   0.08373
   8        3PY         0.00000  -0.00000   0.08373
   9        3PZ         0.00000   0.00000   0.00000   0.06684
  10 2   Cl 1S         -0.00022  -0.00000  -0.00040  -0.00003   2.14425
  11        2S          0.00534   0.00000   0.00910   0.00058  -0.14893
  12        2PX        -0.00000  -0.00050  -0.00000  -0.00000   0.00000
  13        2PY        -0.00121  -0.00000  -0.00040  -0.00017   0.00000
  14        2PZ        -0.00009  -0.00000  -0.00025  -0.00032   0.00000
  15        3S         -0.01146  -0.00000  -0.01734  -0.00020  -0.00174
  16        3PX         0.00000   0.01827   0.00000   0.00000   0.00000
  17        3PY         0.04180   0.00000   0.01521   0.00507   0.00000
  18        3PZ         0.00213   0.00000   0.00850   0.01187   0.00000
  19        4S         -0.08004  -0.00000  -0.05450  -0.00563   0.00570
  20        4PX         0.00000   0.03520   0.00000   0.00000   0.00000
  21        4PY         0.04628   0.00000   0.00795   0.00421   0.00000
  22        4PZ         0.00411   0.00000   0.01177   0.02718   0.00000
  23 3   Cl 1S         -0.00022  -0.00030  -0.00010  -0.00003   0.00000
  24        2S          0.00534   0.00682   0.00227   0.00058   0.00000
  25        2PX        -0.00091  -0.00005  -0.00038  -0.00013   0.00000
  26        2PY        -0.00030  -0.00038  -0.00009  -0.00004   0.00000
  27        2PZ        -0.00009  -0.00019  -0.00006  -0.00032   0.00000
  28        3S         -0.01146  -0.01300  -0.00433  -0.00020   0.00000
  29        3PX         0.03135   0.00289   0.01309   0.00380  -0.00000
  30        3PY         0.01045   0.01309   0.00442   0.00127  -0.00000
  31        3PZ         0.00213   0.00638   0.00213   0.01187   0.00000
  32        4S         -0.08004  -0.04087  -0.01362  -0.00563  -0.00000
  33        4PX         0.03471   0.00002   0.01474   0.00315  -0.00000
  34        4PY         0.01157   0.01474   0.01365   0.00105  -0.00000
  35        4PZ         0.00411   0.00883   0.00294   0.02718   0.00000
  36 4   Cl 1S         -0.00022  -0.00030  -0.00010  -0.00003   0.00000
  37        2S          0.00534   0.00682   0.00227   0.00058   0.00000
  38        2PX        -0.00091  -0.00005  -0.00038  -0.00013   0.00000
  39        2PY        -0.00030  -0.00038  -0.00009  -0.00004   0.00000
  40        2PZ        -0.00009  -0.00019  -0.00006  -0.00032   0.00000
  41        3S         -0.01146  -0.01300  -0.00433  -0.00020   0.00000
  42        3PX         0.03135   0.00289   0.01309   0.00380  -0.00000
  43        3PY         0.01045   0.01309   0.00442   0.00127  -0.00000
  44        3PZ         0.00213   0.00638   0.00213   0.01187   0.00000
  45        4S         -0.08004  -0.04087  -0.01362  -0.00563  -0.00000
  46        4PX         0.03471   0.00002   0.01474   0.00315  -0.00000
  47        4PY         0.01157   0.01474   0.01365   0.00105  -0.00000
  48        4PZ         0.00411   0.00883   0.00294   0.02718   0.00000
                          11        12        13        14        15
  11        2S          2.39337
  12        2PX         0.00000   2.05841
  13        2PY         0.00000   0.00000   2.01516
  14        2PZ         0.00000   0.00000   0.00000   2.04233
  15        3S         -0.12602   0.00000   0.00000   0.00000   0.76070
  16        3PX         0.00000  -0.06300  -0.00000   0.00000   0.00000
  17        3PY         0.00000  -0.00000  -0.03175   0.00000   0.00000
  18        3PZ         0.00000   0.00000   0.00000  -0.05101   0.00000
  19        4S         -0.17288   0.00000   0.00000   0.00000   0.52436
  20        4PX         0.00000  -0.02314  -0.00000   0.00000   0.00000
  21        4PY         0.00000   0.00000  -0.01664   0.00000   0.00000
  22        4PZ         0.00000   0.00000   0.00000  -0.02139   0.00000
  23 3   Cl 1S          0.00000   0.00000   0.00000   0.00000   0.00000
  24        2S          0.00000   0.00000   0.00000   0.00000  -0.00000
  25        2PX         0.00000   0.00000   0.00000   0.00000  -0.00000
  26        2PY         0.00000   0.00000   0.00000   0.00000   0.00000
  27        2PZ         0.00000   0.00000   0.00000   0.00000   0.00000
  28        3S         -0.00000   0.00000   0.00000   0.00000   0.00000
  29        3PX         0.00000   0.00000   0.00000   0.00000  -0.00000
  30        3PY         0.00000   0.00000   0.00000   0.00000  -0.00000
  31        3PZ         0.00000   0.00000   0.00000   0.00000   0.00000
  32        4S          0.00000   0.00001   0.00002   0.00000  -0.00005
  33        4PX         0.00001   0.00001   0.00003   0.00000  -0.00009
  34        4PY         0.00005   0.00004   0.00009   0.00000  -0.00027
  35        4PZ         0.00000   0.00000   0.00000   0.00001   0.00000
  36 4   Cl 1S          0.00000   0.00000   0.00000   0.00000   0.00000
  37        2S          0.00000   0.00000   0.00000   0.00000  -0.00000
  38        2PX         0.00000   0.00000   0.00000   0.00000  -0.00000
  39        2PY         0.00000   0.00000   0.00000   0.00000   0.00000
  40        2PZ         0.00000   0.00000   0.00000   0.00000   0.00000
  41        3S         -0.00000   0.00000   0.00000   0.00000   0.00000
  42        3PX         0.00000   0.00000   0.00000   0.00000  -0.00000
  43        3PY         0.00000   0.00000   0.00000   0.00000  -0.00000
  44        3PZ         0.00000   0.00000   0.00000   0.00000   0.00000
  45        4S          0.00000   0.00001   0.00002   0.00000  -0.00005
  46        4PX         0.00001   0.00001   0.00003   0.00000  -0.00009
  47        4PY         0.00005   0.00004   0.00009   0.00000  -0.00027
  48        4PZ         0.00000   0.00000   0.00000   0.00001   0.00000
                          16        17        18        19        20
  16        3PX         0.78081
  17        3PY         0.00000   0.57466
  18        3PZ         0.00000   0.00000   0.69543
  19        4S          0.00000   0.00000   0.00000   0.69810
  20        4PX         0.38021   0.00000   0.00000   0.00000   0.49682
  21        4PY         0.00000   0.22960   0.00000   0.00000   0.00000
  22        4PZ         0.00000   0.00000   0.34218   0.00000   0.00000
  23 3   Cl 1S         -0.00000  -0.00000   0.00000  -0.00000   0.00000
  24        2S          0.00000   0.00000   0.00000   0.00000   0.00002
  25        2PX         0.00000   0.00000   0.00000   0.00000   0.00001
  26        2PY         0.00000   0.00000   0.00000   0.00003   0.00004
  27        2PZ         0.00000   0.00000   0.00000   0.00000   0.00000
  28        3S         -0.00000  -0.00000   0.00000  -0.00005  -0.00009
  29        3PX        -0.00001  -0.00002   0.00000  -0.00011  -0.00029
  30        3PY        -0.00003  -0.00007   0.00000  -0.00173  -0.00179
  31        3PZ         0.00000   0.00000  -0.00000   0.00000   0.00000
  32        4S         -0.00081  -0.00103   0.00000   0.00086  -0.00437
  33        4PX        -0.00046  -0.00151   0.00000   0.00003  -0.00129
  34        4PY        -0.00208  -0.00414   0.00000  -0.00871  -0.01036
  35        4PZ         0.00000   0.00000  -0.00039   0.00000   0.00000
  36 4   Cl 1S         -0.00000  -0.00000   0.00000  -0.00000   0.00000
  37        2S          0.00000   0.00000   0.00000   0.00000   0.00002
  38        2PX         0.00000   0.00000   0.00000   0.00000   0.00001
  39        2PY         0.00000   0.00000   0.00000   0.00003   0.00004
  40        2PZ         0.00000   0.00000   0.00000   0.00000   0.00000
  41        3S         -0.00000  -0.00000   0.00000  -0.00005  -0.00009
  42        3PX        -0.00001  -0.00002   0.00000  -0.00011  -0.00029
  43        3PY        -0.00003  -0.00007   0.00000  -0.00173  -0.00179
  44        3PZ         0.00000   0.00000  -0.00000   0.00000   0.00000
  45        4S         -0.00081  -0.00103   0.00000   0.00086  -0.00437
  46        4PX        -0.00046  -0.00151   0.00000   0.00003  -0.00129
  47        4PY        -0.00208  -0.00414   0.00000  -0.00871  -0.01036
  48        4PZ         0.00000   0.00000  -0.00039   0.00000   0.00000
                          21        22        23        24        25
  21        4PY         0.27570
  22        4PZ         0.00000   0.45309
  23 3   Cl 1S         -0.00000   0.00000   2.14425
  24        2S          0.00005   0.00000  -0.14893   2.39337
  25        2PX         0.00003   0.00000   0.00000   0.00000   2.02598
  26        2PY         0.00011   0.00000   0.00000   0.00000  -0.00000
  27        2PZ         0.00000   0.00001   0.00000   0.00000   0.00000
  28        3S         -0.00027   0.00000  -0.00174  -0.12602   0.00000
  29        3PX        -0.00121   0.00000   0.00000   0.00000  -0.03956
  30        3PY        -0.00490   0.00000   0.00000   0.00000  -0.00000
  31        3PZ         0.00000  -0.00039   0.00000   0.00000   0.00000
  32        4S         -0.00430   0.00000   0.00570  -0.17288   0.00000
  33        4PX        -0.00624   0.00000   0.00000   0.00000  -0.01827
  34        4PY        -0.02225   0.00000   0.00000   0.00000   0.00000
  35        4PZ         0.00000  -0.00314   0.00000   0.00000   0.00000
  36 4   Cl 1S         -0.00000   0.00000   0.00000   0.00000   0.00000
  37        2S          0.00005   0.00000   0.00000   0.00000   0.00000
  38        2PX         0.00003   0.00000   0.00000   0.00000   0.00000
  39        2PY         0.00011   0.00000   0.00000   0.00000   0.00000
  40        2PZ         0.00000   0.00001   0.00000   0.00000   0.00000
  41        3S         -0.00027   0.00000   0.00000  -0.00000   0.00000
  42        3PX        -0.00121   0.00000  -0.00000   0.00000   0.00000
  43        3PY        -0.00490   0.00000  -0.00000  -0.00000  -0.00000
  44        3PZ         0.00000  -0.00039   0.00000   0.00000   0.00000
  45        4S         -0.00430   0.00000  -0.00000   0.00000   0.00003
  46        4PX        -0.00624   0.00000  -0.00000   0.00006   0.00018
  47        4PY        -0.02225   0.00000   0.00000  -0.00000   0.00000
  48        4PZ         0.00000  -0.00314   0.00000   0.00000   0.00000
                          26        27        28        29        30
  26        2PY         2.04760
  27        2PZ         0.00000   2.04233
  28        3S          0.00000   0.00000   0.76070
  29        3PX        -0.00000   0.00000   0.00000   0.62620
  30        3PY        -0.05519   0.00000   0.00000  -0.00000   0.72927
  31        3PZ         0.00000  -0.05101   0.00000   0.00000   0.00000
  32        4S          0.00000   0.00000   0.52436   0.00000   0.00000
  33        4PX        -0.00000   0.00000   0.00000   0.26726  -0.00000
  34        4PY        -0.02152   0.00000   0.00000   0.00000   0.34256
  35        4PZ         0.00000  -0.02139   0.00000   0.00000   0.00000
  36 4   Cl 1S          0.00000   0.00000   0.00000  -0.00000  -0.00000
  37        2S          0.00000   0.00000  -0.00000   0.00000  -0.00000
  38        2PX         0.00000   0.00000   0.00000   0.00000  -0.00000
  39        2PY         0.00000   0.00000   0.00000   0.00000   0.00000
  40        2PZ         0.00000   0.00000   0.00000   0.00000   0.00000
  41        3S          0.00000   0.00000   0.00000  -0.00001   0.00000
  42        3PX         0.00000   0.00000  -0.00001  -0.00012  -0.00000
  43        3PY         0.00000   0.00000   0.00000   0.00000  -0.00000
  44        3PZ         0.00000   0.00000   0.00000   0.00000   0.00000
  45        4S          0.00000   0.00000  -0.00005  -0.00184  -0.00000
  46        4PX         0.00000   0.00000  -0.00036  -0.00824  -0.00000
  47        4PY        -0.00000   0.00000   0.00000  -0.00000   0.00005
  48        4PZ         0.00000   0.00001   0.00000   0.00000   0.00000
                          31        32        33        34        35
  31        3PZ         0.69543
  32        4S          0.00000   0.69810
  33        4PX         0.00000   0.00000   0.33098
  34        4PY         0.00000   0.00000  -0.00000   0.44154
  35        4PZ         0.34218   0.00000   0.00000   0.00000   0.45309
  36 4   Cl 1S          0.00000  -0.00000  -0.00000   0.00000   0.00000
  37        2S          0.00000   0.00000   0.00006  -0.00000   0.00000
  38        2PX         0.00000   0.00003   0.00018   0.00000   0.00000
  39        2PY         0.00000   0.00000   0.00000  -0.00000   0.00000
  40        2PZ         0.00000   0.00000   0.00000   0.00000   0.00001
  41        3S          0.00000  -0.00005  -0.00036   0.00000   0.00000
  42        3PX         0.00000  -0.00184  -0.00824  -0.00000   0.00000
  43        3PY         0.00000  -0.00000  -0.00000   0.00005   0.00000
  44        3PZ        -0.00000   0.00000   0.00000   0.00000  -0.00039
  45        4S          0.00000   0.00086  -0.00868   0.00000   0.00000
  46        4PX         0.00000  -0.00868  -0.04102  -0.00000   0.00000
  47        4PY         0.00000   0.00000   0.00000   0.00088   0.00000
  48        4PZ        -0.00039   0.00000   0.00000   0.00000  -0.00314
                          36        37        38        39        40
  36 4   Cl 1S          2.14425
  37        2S         -0.14893   2.39337
  38        2PX         0.00000   0.00000   2.02598
  39        2PY         0.00000   0.00000  -0.00000   2.04760
  40        2PZ         0.00000   0.00000   0.00000   0.00000   2.04233
  41        3S         -0.00174  -0.12602   0.00000   0.00000   0.00000
  42        3PX         0.00000   0.00000  -0.03956   0.00000   0.00000
  43        3PY         0.00000   0.00000   0.00000  -0.05519   0.00000
  44        3PZ         0.00000   0.00000   0.00000   0.00000  -0.05101
  45        4S          0.00570  -0.17288   0.00000   0.00000   0.00000
  46        4PX         0.00000   0.00000  -0.01827   0.00000   0.00000
  47        4PY         0.00000   0.00000  -0.00000  -0.02152   0.00000
  48        4PZ         0.00000   0.00000   0.00000   0.00000  -0.02139
                          41        42        43        44        45
  41        3S          0.76070
  42        3PX         0.00000   0.62620
  43        3PY         0.00000   0.00000   0.72927
  44        3PZ         0.00000   0.00000   0.00000   0.69543
  45        4S          0.52436   0.00000   0.00000   0.00000   0.69810
  46        4PX         0.00000   0.26726   0.00000   0.00000   0.00000
  47        4PY         0.00000   0.00000   0.34256   0.00000   0.00000
  48        4PZ         0.00000   0.00000   0.00000   0.34218   0.00000
                          46        47        48
  46        4PX         0.33098
  47        4PY        -0.00000   0.44154
  48        4PZ         0.00000   0.00000   0.45309
     Gross orbital populations:
                           1
   1 1   B  1S          1.98791
   2        2S          0.40559
   3        2PX         0.44939
   4        2PY         0.44939
   5        2PZ         0.13362
   6        3S          0.64028
   7        3PX         0.18293
   8        3PY         0.18293
   9        3PZ         0.22785
  10 2   Cl 1S          1.99864
  11        2S          1.96025
  12        2PX         1.97189
  13        2PY         1.96394
  14        2PZ         1.96916
  15        3S          1.13349
  16        3PX         1.11060
  17        3PY         0.88209
  18        3PZ         1.01599
  19        4S          0.88771
  20        4PX         0.85259
  21        4PY         0.53995
  22        4PZ         0.82709
  23 3   Cl 1S          1.99864
  24        2S          1.96025
  25        2PX         1.96593
  26        2PY         1.96990
  27        2PZ         1.96916
  28        3S          1.13349
  29        3PX         0.93921
  30        3PY         1.05347
  31        3PZ         1.01599
  32        4S          0.88771
  33        4PX         0.61811
  34        4PY         0.77443
  35        4PZ         0.82709
  36 4   Cl 1S          1.99864
  37        2S          1.96025
  38        2PX         1.96593
  39        2PY         1.96990
  40        2PZ         1.96916
  41        3S          1.13349
  42        3PX         0.93921
  43        3PY         1.05347
  44        3PZ         1.01599
  45        4S          0.88771
  46        4PX         0.61811
  47        4PY         0.77443
  48        4PZ         0.82709
          Condensed to atoms (all electrons):
               1          2          3          4
     1  B    3.953743   0.235384   0.235384   0.235384
     2  Cl   0.235384  17.039956  -0.080985  -0.080985
     3  Cl   0.235384  -0.080985  17.039956  -0.080985
     4  Cl   0.235384  -0.080985  -0.080985  17.039956
 Mulliken charges:
               1
     1  B    0.340107
     2  Cl  -0.113369
     3  Cl  -0.113369
     4  Cl  -0.113369
 Sum of Mulliken charges =   0.00000
 Mulliken charges with hydrogens summed into heavy atoms:
               1
     1  B    0.340107
     2  Cl  -0.113369
     3  Cl  -0.113369
     4  Cl  -0.113369
 Electronic spatial extent (au):  <R**2>=            706.2911
 Charge=              0.0000 electrons
 Dipole moment (field-independent basis, Debye):
    X=              0.0000    Y=              0.0000    Z=              1.4920  Tot=              1.4920
 Quadrupole moment (field-independent basis, Debye-Ang):
   XX=            -48.8443   YY=            -48.8443   ZZ=            -42.9023
   XY=              0.0000   XZ=              0.0000   YZ=             -0.0000
 Traceless Quadrupole moment (field-independent basis, Debye-Ang):
   XX=             -1.9807   YY=             -1.9807   ZZ=              3.9613
   XY=              0.0000   XZ=              0.0000   YZ=             -0.0000
 Octapole moment (field-independent basis, Debye-Ang**2):
  XXX=              0.0000  YYY=             -1.3584  ZZZ=             -0.6850  XYY=              0.0000
  XXY=              1.3584  XXZ=             -2.5703  XZZ=              0.0000  YZZ=              0.0000
  YYZ=             -2.5703  XYZ=              0.0000
 Hexadecapole moment (field-independent basis, Debye-Ang**3):
 XXXX=           -432.0776 YYYY=           -432.0776 ZZZZ=            -54.2822 XXXY=              0.0000
 XXXZ=             -0.0000 YYYX=              0.0000 YYYZ=             -2.7542 ZZZX=             -0.0000
 ZZZY=             -0.0000 XXYY=           -144.0259 XXZZ=            -81.3731 YYZZ=            -81.3731
 XXYZ=              2.7542 YYXZ=             -0.0000 ZZXY=              0.0000
 N-N= 2.182141789693D+02 E-N=-3.760022304491D+03  KE= 1.395176357493D+03
 Symmetry A'   KE= 8.913268077020D+02
 Symmetry A"   KE= 5.038495497907D+02
 Orbital energies and kinetic energies (alpha):
                                 1                 2
   1         (E)--O         -104.150101        136.078079
   2         (E)--O         -104.150101        136.078079
   3         (A1)--O        -104.149815        136.085165
   4         (E)--O          -10.544228         22.343647
   5         (E)--O          -10.544228         22.343647
   6         (A1)--O         -10.543309         22.366501
   7         (E)--O           -8.006986         20.330862
   8         (E)--O           -8.006986         20.330862
   9         (A1)--O          -8.006767         20.342203
  10         (E)--O           -8.003353         20.364961
  11         (E)--O           -8.003353         20.364961
  12         (A1)--O          -8.003277         20.368519
  13         (A2)--O          -8.003128         20.361877
  14         (E)--O           -8.002879         20.373869
  15         (E)--O           -8.002879         20.373869
  16         (A1)--O          -7.814947         10.820035
  17         (A1)--O          -1.181902          2.592898
  18         (E)--O           -1.126767          2.957699
  19         (E)--O           -1.126767          2.957699
  20         (A1)--O          -0.707200          2.137364
  21         (E)--O           -0.598821          1.991062
  22         (E)--O           -0.598821          1.991062
  23         (A1)--O          -0.555853          1.869129
  24         (E)--O           -0.501994          2.258469
  25         (E)--O           -0.501994          2.258469
  26         (E)--O           -0.486847          2.382940
  27         (E)--O           -0.486847          2.382940
  28         (A2)--O          -0.476305          2.481308
  29         (A1)--V          -0.022098          1.428218
  30         (A1)--V           0.159904          2.253191
  31         (E)--V            0.193970          1.673374
  32         (E)--V            0.193970          1.673374
  33         (E)--V            0.568561          1.915564
  34         (E)--V            0.568561          1.915564
  35         (A1)--V           0.576561          1.763227
  36         (A1)--V           0.644983          2.754387
  37         (E)--V            0.736813          3.163941
  38         (E)--V            0.736813          3.163941
  39         (E)--V            0.748862          3.455633
  40         (E)--V            0.748862          3.455633
  41         (A1)--V           0.760186          3.480762
  42         (A1)--V           0.813048          3.372614
  43         (E)--V            0.839750          3.360224
  44         (E)--V            0.839750          3.360224
  45         (A2)--V           0.887014          3.511004
  46         (E)--V            1.015754          3.707643
  47         (E)--V            1.015754          3.707643
  48         (A1)--V           1.104232          2.034957
 Total kinetic energy from orbitals= 1.395176357493D+03
 1\1\GINC-IISERK51\SP\RHF\3-21G\B1Cl3\GAUSSIAN\17-Jun-2025\0\\# hf/3-21
 g pop=full geom=connectivity\\Title Card Required\\0,1\B,0,0.,0.,-0.19
 8057\Cl,0,0.,1.81223,-0.670957\Cl,0,1.569437,-0.906115,-0.670957\Cl,0,
 -1.569437,-0.906115,-0.670957\\Version=EM64L-G16RevB.01\State=1-A1\HF=
 -1396.4952452\RMSD=1.166e-09\Dipole=0.,0.,0.5869901\Quadrupole=-1.4725
 774,-1.4725774,2.9451549,0.,0.,0.\PG=C03V [C3(B1),3SGV(Cl1)]\\@


 YOU KNOW YOU'RE A TEACHER WHEN YOU SAY 2, WRITE 3, AND MEAN 4.
 -- RONALD ANSTROM, HIGH SCHOOL TEACHER, UNDERWOOD, N.D. 1974
 Job cpu time:       0 days  0 hours  0 minutes  0.4 seconds.
 Elapsed time:       0 days  0 hours  0 minutes  0.4 seconds.
 File lengths (MBytes):  RWF=      6 Int=      0 D2E=      0 Chk=      1 Scr=      1
 Normal termination of Gaussian 16 at Tue Jun 17 15:56:17 2025.
