 Entering Gaussian System, Link 0=g16
 Input=/home/gaussian/Documents/Summer_Internship/Acid_Base_adduct/Adduct/PH3-BCl3/PH3_BCl3_adduct_opt.com
 Output=/home/gaussian/Documents/Summer_Internship/Acid_Base_adduct/Adduct/PH3-BCl3/PH3_BCl3_adduct_opt.log
 Initial command:
 /usr/local/g16/l1.exe "/home/gaussian/tmp/Gau-92749.inp" -scrdir="/home/gaussian/tmp/"
 Entering Link 1 = /usr/local/g16/l1.exe PID=     92752.
  
 Copyright (c) 1988-2017, Gaussian, Inc.  All Rights Reserved.
  
 This is part of the Gaussian(R) 16 program.  It is based on
 the Gaussian(R) 09 system (copyright 2009, Gaussian, Inc.),
 the Gaussian(R) 03 system (copyright 2003, Gaussian, Inc.),
 the Gaussian(R) 98 system (copyright 1998, Gaussian, Inc.),
 the Gaussian(R) 94 system (copyright 1995, Gaussian, Inc.),
 the Gaussian 92(TM) system (copyright 1992, Gaussian, Inc.),
 the Gaussian 90(TM) system (copyright 1990, Gaussian, Inc.),
 the Gaussian 88(TM) system (copyright 1988, Gaussian, Inc.),
 the Gaussian 86(TM) system (copyright 1986, Carnegie Mellon
 University), and the Gaussian 82(TM) system (copyright 1983,
 Carnegie Mellon University). Gaussian is a federally registered
 trademark of Gaussian, Inc.
  
 This software contains proprietary and confidential information,
 including trade secrets, belonging to Gaussian, Inc.
  
 This software is provided under written license and may be
 used, copied, transmitted, or stored only in accord with that
 written license.
  
 The following legend is applicable only to US Government
 contracts under FAR:
  
                    RESTRICTED RIGHTS LEGEND
  
 Use, reproduction and disclosure by the US Government is
 subject to restrictions as set forth in subparagraphs (a)
 and (c) of the Commercial Computer Software - Restricted
 Rights clause in FAR 52.227-19.
  
 Gaussian, Inc.
 340 Quinnipiac St., Bldg. 40, Wallingford CT 06492
  
  
 ---------------------------------------------------------------
 Warning -- This program may not be used in any manner that
 competes with the business of Gaussian, Inc. or will provide
 assistance to any competitor of Gaussian, Inc.  The licensee
 of this program is prohibited from giving any competitor of
 Gaussian, Inc. access to this program.  By using this program,
 the user acknowledges that Gaussian, Inc. is engaged in the
 business of creating and licensing software in the field of
 computational chemistry and represents and warrants to the
 licensee that it is not a competitor of Gaussian, Inc. and that
 it will not use this program in any manner prohibited above.
 ---------------------------------------------------------------
  

 Cite this work as:
 Gaussian 16, Revision B.01,
 M. J. Frisch, G. W. Trucks, H. B. Schlegel, G. E. Scuseria, 
 M. A. Robb, J. R. Cheeseman, G. Scalmani, V. Barone, 
 G. A. Petersson, H. Nakatsuji, X. Li, M. Caricato, A. V. Marenich, 
 J. Bloino, B. G. Janesko, R. Gomperts, B. Mennucci, H. P. Hratchian, 
 J. V. Ortiz, A. F. Izmaylov, J. L. Sonnenberg, D. Williams-Young, 
 F. Ding, F. Lipparini, F. Egidi, J. Goings, B. Peng, A. Petrone, 
 T. Henderson, D. Ranasinghe, V. G. Zakrzewski, J. Gao, N. Rega, 
 G. Zheng, W. Liang, M. Hada, M. Ehara, K. Toyota, R. Fukuda, 
 J. Hasegawa, M. Ishida, T. Nakajima, Y. Honda, O. Kitao, H. Nakai, 
 T. Vreven, K. Throssell, J. A. Montgomery, Jr., J. E. Peralta, 
 F. Ogliaro, M. J. Bearpark, J. J. Heyd, E. N. Brothers, K. N. Kudin, 
 V. N. Staroverov, T. A. Keith, R. Kobayashi, J. Normand, 
 K. Raghavachari, A. P. Rendell, J. C. Burant, S. S. Iyengar, 
 J. Tomasi, M. Cossi, J. M. Millam, M. Klene, C. Adamo, R. Cammi, 
 J. W. Ochterski, R. L. Martin, K. Morokuma, O. Farkas, 
 J. B. Foresman, and D. J. Fox, Gaussian, Inc., Wallingford CT, 2016.
 
 ******************************************
 Gaussian 16:  EM64L-G16RevB.01 20-Dec-2017
                17-Jun-2025 
 ******************************************
 %chk=PH3_BCl3_adduct_opt.chk
 ----------------------------------------------
 # opt freq hf/3-21g pop=full geom=connectivity
 ----------------------------------------------
 1/18=20,19=15,38=1,57=2/1,3;
 2/9=110,12=2,17=6,18=5,40=1/2;
 3/5=5,11=9,25=1,30=1,71=1/1,2,3;
 4//1;
 5/5=2,38=5/2;
 6/7=3,28=1/1;
 7//1,2,3,16;
 1/18=20,19=15/3(2);
 2/9=110/2;
 99//99;
 2/9=110/2;
 3/5=5,11=9,25=1,30=1,71=1/1,2,3;
 4/5=5,16=3,69=1/1;
 5/5=2,38=5/2;
 7//1,2,3,16;
 1/18=20,19=15/3(-5);
 2/9=110/2;
 6/7=3,19=2,28=1/1;
 99/9=1/99;
 -------------------
 Title Card Required
 -------------------
 Symbolic Z-matrix:
 Charge =  0 Multiplicity = 1
 B                    -2.0889    2.51374   1.09246 
 P                    -2.18981   2.83261   2.99326 
 Cl                   -3.33115   1.20047   0.61391 
 Cl                   -2.47053   4.09712   0.17367 
 Cl                   -0.36723   1.93469   0.64809 
 H                    -1.293     3.7807    3.33874 
 H                    -3.43272   3.25065   3.31406 
 H                    -1.9143    1.68953   3.65655 
 

 GradGradGradGradGradGradGradGradGradGradGradGradGradGradGradGradGradGrad
 Berny optimization.
 Initialization pass.
                           ----------------------------
                           !    Initial Parameters    !
                           ! (Angstroms and Degrees)  !
 --------------------------                            --------------------------
 ! Name  Definition              Value          Derivative Info.                !
 --------------------------------------------------------------------------------
 ! R1    R(1,2)                  1.93           estimate D2E/DX2                !
 ! R2    R(1,3)                  1.87           estimate D2E/DX2                !
 ! R3    R(1,4)                  1.87           estimate D2E/DX2                !
 ! R4    R(1,5)                  1.87           estimate D2E/DX2                !
 ! R5    R(2,6)                  1.35           estimate D2E/DX2                !
 ! R6    R(2,7)                  1.35           estimate D2E/DX2                !
 ! R7    R(2,8)                  1.35           estimate D2E/DX2                !
 ! A1    A(2,1,3)              109.4712         estimate D2E/DX2                !
 ! A2    A(2,1,4)              109.4712         estimate D2E/DX2                !
 ! A3    A(2,1,5)              109.4712         estimate D2E/DX2                !
 ! A4    A(3,1,4)              109.4712         estimate D2E/DX2                !
 ! A5    A(3,1,5)              109.4712         estimate D2E/DX2                !
 ! A6    A(4,1,5)              109.4712         estimate D2E/DX2                !
 ! A7    A(1,2,6)              109.4712         estimate D2E/DX2                !
 ! A8    A(1,2,7)              109.4712         estimate D2E/DX2                !
 ! A9    A(1,2,8)              109.4712         estimate D2E/DX2                !
 ! A10   A(6,2,7)              109.4712         estimate D2E/DX2                !
 ! A11   A(6,2,8)              109.4712         estimate D2E/DX2                !
 ! A12   A(7,2,8)              109.4712         estimate D2E/DX2                !
 ! D1    D(3,1,2,6)            180.0            estimate D2E/DX2                !
 ! D2    D(3,1,2,7)            -60.0            estimate D2E/DX2                !
 ! D3    D(3,1,2,8)             60.0            estimate D2E/DX2                !
 ! D4    D(4,1,2,6)            -60.0            estimate D2E/DX2                !
 ! D5    D(4,1,2,7)             60.0            estimate D2E/DX2                !
 ! D6    D(4,1,2,8)            180.0            estimate D2E/DX2                !
 ! D7    D(5,1,2,6)             60.0            estimate D2E/DX2                !
 ! D8    D(5,1,2,7)            180.0            estimate D2E/DX2                !
 ! D9    D(5,1,2,8)            -60.0            estimate D2E/DX2                !
 --------------------------------------------------------------------------------
 Trust Radius=3.00D-01 FncErr=1.00D-07 GrdErr=1.00D-07 EigMax=2.50D+02 EigMin=1.00D-04
 Number of steps in this run=     38 maximum allowed number of steps=    100.
 GradGradGradGradGradGradGradGradGradGradGradGradGradGradGradGradGradGrad

                          Input orientation:                          
 ---------------------------------------------------------------------
 Center     Atomic      Atomic             Coordinates (Angstroms)
 Number     Number       Type             X           Y           Z
 ---------------------------------------------------------------------
      1          5           0       -2.088897    2.513743    1.092458
      2         15           0       -2.189810    2.832610    2.993258
      3         17           0       -3.331151    1.200468    0.613905
      4         17           0       -2.470531    4.097120    0.173670
      5         17           0       -0.367231    1.934686    0.648092
      6          1           0       -1.292996    3.780696    3.338738
      7          1           0       -3.432724    3.250645    3.314058
      8          1           0       -1.914299    1.689530    3.656555
 ---------------------------------------------------------------------
                    Distance matrix (angstroms):
                    1          2          3          4          5
     1  B    0.000000
     2  P    1.930000   0.000000
     3  Cl   1.870000   3.102880   0.000000
     4  Cl   1.870000   3.102880   3.053697   0.000000
     5  Cl   1.870000   3.102880   3.053697   3.053697   0.000000
     6  H    2.698963   1.350000   4.270406   3.391809   3.391809
     7  H    2.698963   1.350000   3.391809   3.391809   4.270406
     8  H    2.698963   1.350000   3.391809   4.270406   3.391809
                    6          7          8
     6  H    0.000000
     7  H    2.204541   0.000000
     8  H    2.204541   2.204541   0.000000
 Stoichiometry    BCl3H3P
 Framework group  C3V[C3(BP),3SGV(ClH)]
 Deg. of freedom     5
 Full point group                 C3V     NOp   6
 Largest Abelian subgroup         CS      NOp   2
 Largest concise Abelian subgroup CS      NOp   2
                         Standard orientation:                         
 ---------------------------------------------------------------------
 Center     Atomic      Atomic             Coordinates (Angstroms)
 Number     Number       Type             X           Y           Z
 ---------------------------------------------------------------------
      1          5           0       -0.000000   -0.000000   -0.058108
      2         15           0        0.000000    0.000000    1.871892
      3         17           0       -0.000000    1.763053   -0.681441
      4         17           0        1.526849   -0.881526   -0.681441
      5         17           0       -1.526849   -0.881526   -0.681441
      6          1           0        0.000000   -1.272792    2.321892
      7          1           0        1.102270    0.636396    2.321892
      8          1           0       -1.102270    0.636396    2.321892
 ---------------------------------------------------------------------
 Rotational constants (GHZ):           1.5268944           1.4919513           1.4919513
 Standard basis: 3-21G (6D, 7F)
 There are    44 symmetry adapted cartesian basis functions of A'  symmetry.
 There are    23 symmetry adapted cartesian basis functions of A"  symmetry.
 There are    44 symmetry adapted basis functions of A'  symmetry.
 There are    23 symmetry adapted basis functions of A"  symmetry.
    67 basis functions,   132 primitive gaussians,    67 cartesian basis functions
    37 alpha electrons       37 beta electrons
       nuclear repulsion energy       416.9672700265 Hartrees.



 Warning!  P  atom    2 may be hypervalent but has no d functions.



 NAtoms=    8 NActive=    8 NUniq=    4 SFac= 4.00D+00 NAtFMM=   60 NAOKFM=F Big=F
 Integral buffers will be    131072 words long.
 Raffenetti 1 integral format.
 Two-electron integral symmetry is turned on.
 One-electron integrals computed using PRISM.
 NBasis=    67 RedAO= T EigKep=  8.33D-03  NBF=    44    23
 NBsUse=    67 1.00D-06 EigRej= -1.00D+00 NBFU=    44    23
 ExpMin= 1.23D-01 ExpMax= 1.38D+03 ExpMxC= 1.38D+03 IAcc=3 IRadAn=         5 AccDes= 0.00D+00
 Harris functional with IExCor=  205 and IRadAn=       5 diagonalized for initial guess.
 HarFok:  IExCor=  205 AccDes= 0.00D+00 IRadAn=         5 IDoV= 1 UseB2=F ITyADJ=14
 ICtDFT=  3500011 ScaDFX=  1.000000  1.000000  1.000000  1.000000
 FoFCou: FMM=F IPFlag=           0 FMFlag=      100000 FMFlg1=           0
         NFxFlg=           0 DoJE=T BraDBF=F KetDBF=T FulRan=T
         wScrn=  0.000000 ICntrl=       500 IOpCl=  0 I1Cent=   200000004 NGrid=           0
         NMat0=    1 NMatS0=      1 NMatT0=    0 NMatD0=    1 NMtDS0=    0 NMtDT0=    0
 Petite list used in FoFCou.
 Initial guess orbital symmetries:
       Occupied  (E) (E) (A1) (A1) (E) (E) (A1) (E) (E) (A1) (A2)
                 (E) (E) (A1) (E) (E) (A1) (A1) (E) (E) (A1) (A1)
                 (E) (E) (A1) (A1) (E) (E) (A1) (E) (E) (E) (E)
                 (A1) (E) (E) (A2)
       Virtual   (E) (E) (A1) (A1) (A1) (E) (E) (E) (E) (A1) (A1)
                 (E) (E) (A1) (E) (E) (A1) (E) (E) (A1) (E) (E)
                 (A2) (A1) (E) (E) (A1) (E) (E) (A1)
 The electronic state of the initial guess is 1-A1.
 Keep R1 ints in memory in symmetry-blocked form, NReq=3916500.
 Requested convergence on RMS density matrix=1.00D-08 within 128 cycles.
 Requested convergence on MAX density matrix=1.00D-06.
 Requested convergence on             energy=1.00D-06.
 No special actions if energy rises.
 SCF Done:  E(RHF) =  -1737.23929487     A.U. after   11 cycles
            NFock= 11  Conv=0.30D-08     -V/T= 2.0005

 **********************************************************************

            Population analysis using the SCF Density.

 **********************************************************************

 Orbital symmetries:
       Occupied  (E) (E) (A1) (A1) (E) (E) (A1) (E) (E) (A1) (E)
                 (E) (A2) (A1) (E) (E) (A1) (A1) (E) (E) (A1) (A1)
                 (E) (E) (A1) (A1) (E) (E) (A1) (E) (E) (E) (E)
                 (A1) (E) (E) (A2)
       Virtual   (E) (E) (A1) (A1) (E) (E) (A1) (E) (E) (A1) (A1)
                 (E) (E) (A1) (E) (E) (A1) (E) (E) (A1) (E) (E)
                 (A2) (A1) (E) (E) (A1) (E) (E) (A1)
 The electronic state is 1-A1.
 Alpha  occ. eigenvalues -- -104.08279-104.08279-104.08250 -79.49644 -10.47796
 Alpha  occ. eigenvalues --  -10.47796 -10.47707  -7.94093  -7.94093  -7.94080
 Alpha  occ. eigenvalues --   -7.93749  -7.93749  -7.93738  -7.93734  -7.93715
 Alpha  occ. eigenvalues --   -7.93715  -7.70950  -7.58029  -5.46533  -5.46533
 Alpha  occ. eigenvalues --   -5.46443  -1.13986  -1.06964  -1.06964  -1.01356
 Alpha  occ. eigenvalues --   -0.70462  -0.67459  -0.67459  -0.58031  -0.54326
 Alpha  occ. eigenvalues --   -0.54326  -0.45994  -0.45994  -0.43136  -0.42852
 Alpha  occ. eigenvalues --   -0.42852  -0.41778
 Alpha virt. eigenvalues --    0.12458   0.12458   0.12509   0.19410   0.22929
 Alpha virt. eigenvalues --    0.22929   0.24803   0.50254   0.50254   0.53525
 Alpha virt. eigenvalues --    0.57622   0.66347   0.66347   0.68560   0.77741
 Alpha virt. eigenvalues --    0.77741   0.79713   0.81200   0.81200   0.81647
 Alpha virt. eigenvalues --    0.90863   0.90863   0.93291   0.99111   1.07008
 Alpha virt. eigenvalues --    1.07008   1.13224   1.25517   1.25517   1.55570
     Molecular Orbital Coefficients:
                           1         2         3         4         5
                        (E)--O    (E)--O    (A1)--O   (A1)--O   (E)--O
     Eigenvalues --  -104.08279-104.08279-104.08250 -79.49644 -10.47796
   1 1   B  1S         -0.00000   0.00000   0.00013  -0.00019   0.00000
   2        2S         -0.00000   0.00000   0.00148  -0.00074   0.00000
   3        2PX         0.00000   0.00008   0.00000   0.00000  -0.00057
   4        2PY         0.00008   0.00000   0.00000  -0.00000   0.00000
   5        2PZ         0.00000   0.00000  -0.00017   0.00017   0.00000
   6        3S          0.00000   0.00000  -0.00801   0.00203   0.00000
   7        3PX         0.00000  -0.00437   0.00000   0.00000   0.02576
   8        3PY        -0.00437   0.00000  -0.00000  -0.00000   0.00000
   9        3PZ        -0.00000   0.00000   0.00358  -0.00111   0.00000
  10 2   P  1S         -0.00000   0.00000   0.00001   0.98701   0.00000
  11        2S         -0.00000   0.00000   0.00001   0.04878   0.00000
  12        2PX         0.00000  -0.00008   0.00000   0.00000   0.00036
  13        2PY        -0.00008   0.00000  -0.00000   0.00000   0.00000
  14        2PZ        -0.00000   0.00000   0.00010  -0.00002   0.00000
  15        3S         -0.00000   0.00000   0.00154  -0.01632   0.00000
  16        3PX         0.00000   0.00045   0.00000   0.00000  -0.00239
  17        3PY         0.00045   0.00000   0.00000   0.00000   0.00000
  18        3PZ         0.00000   0.00000  -0.00065   0.00048   0.00000
  19        4S          0.00000   0.00000  -0.00304   0.01198   0.00000
  20        4PX         0.00000  -0.00080   0.00000   0.00000   0.00400
  21        4PY        -0.00080   0.00000  -0.00000  -0.00000   0.00000
  22        4PZ        -0.00000   0.00000   0.00125  -0.00035   0.00000
  23 3   Cl 1S          0.80496   0.00000   0.56921   0.00001   0.00000
  24        2S          0.04341   0.00000   0.03060  -0.00005   0.00000
  25        2PX         0.00000  -0.00004   0.00000   0.00000   0.00013
  26        2PY        -0.00021   0.00000  -0.00007   0.00001   0.00000
  27        2PZ         0.00008   0.00000   0.00005  -0.00003   0.00000
  28        3S         -0.01622   0.00000  -0.01092   0.00077   0.00000
  29        3PX         0.00000   0.00017   0.00000   0.00000  -0.00085
  30        3PY         0.00089   0.00000   0.00022  -0.00008   0.00000
  31        3PZ        -0.00032   0.00000  -0.00017   0.00020   0.00000
  32        4S          0.01167   0.00000   0.00818  -0.00178   0.00000
  33        4PX         0.00000   0.00021   0.00000   0.00000  -0.00145
  34        4PY        -0.00312   0.00000  -0.00220   0.00081   0.00000
  35        4PZ         0.00132   0.00000   0.00055  -0.00071   0.00000
  36 4   Cl 1S         -0.40248   0.69712   0.56921   0.00001  -0.21629
  37        2S         -0.02171   0.03759   0.03060  -0.00005   0.69484
  38        2PX         0.00008  -0.00017  -0.00006   0.00001  -0.00428
  39        2PY        -0.00008   0.00008   0.00003  -0.00000   0.00254
  40        2PZ        -0.00004   0.00007   0.00005  -0.00003   0.00291
  41        3S          0.00811  -0.01405  -0.01092   0.00077   0.10375
  42        3PX        -0.00031   0.00071   0.00019  -0.00007  -0.00480
  43        3PY         0.00035  -0.00031  -0.00011   0.00004   0.00228
  44        3PZ         0.00016  -0.00027  -0.00017   0.00020   0.00211
  45        4S         -0.00583   0.01010   0.00818  -0.00178  -0.05914
  46        4PX         0.00144  -0.00229  -0.00190   0.00071   0.01326
  47        4PY        -0.00063   0.00144   0.00110  -0.00041  -0.00849
  48        4PZ        -0.00066   0.00114   0.00055  -0.00071  -0.00674
  49 5   Cl 1S         -0.40248  -0.69712   0.56921   0.00001   0.21629
  50        2S         -0.02171  -0.03759   0.03060  -0.00005  -0.69484
  51        2PX        -0.00008  -0.00017   0.00006  -0.00001  -0.00428
  52        2PY        -0.00008  -0.00008   0.00003  -0.00000  -0.00254
  53        2PZ        -0.00004  -0.00007   0.00005  -0.00003  -0.00291
  54        3S          0.00811   0.01405  -0.01092   0.00077  -0.10375
  55        3PX         0.00031   0.00071  -0.00019   0.00007  -0.00480
  56        3PY         0.00035   0.00031  -0.00011   0.00004  -0.00228
  57        3PZ         0.00016   0.00027  -0.00017   0.00020  -0.00211
  58        4S         -0.00583  -0.01010   0.00818  -0.00178   0.05914
  59        4PX        -0.00144  -0.00229   0.00190  -0.00071   0.01326
  60        4PY        -0.00063  -0.00144   0.00110  -0.00041   0.00849
  61        4PZ        -0.00066  -0.00114   0.00055  -0.00071   0.00674
  62 6   H  1S          0.00018   0.00000   0.00006   0.00111   0.00000
  63        2S         -0.00086   0.00000   0.00032  -0.00227   0.00000
  64 7   H  1S         -0.00009  -0.00015   0.00006   0.00111   0.00079
  65        2S          0.00043   0.00074   0.00032  -0.00227  -0.00394
  66 8   H  1S         -0.00009   0.00015   0.00006   0.00111  -0.00079
  67        2S          0.00043  -0.00074   0.00032  -0.00227   0.00394
                           6         7         8         9        10
                        (E)--O    (A1)--O   (E)--O    (E)--O    (A1)--O
     Eigenvalues --   -10.47796 -10.47707  -7.94093  -7.94093  -7.94080
   1 1   B  1S          0.00000  -0.00117  -0.00000   0.00000   0.00051
   2        2S          0.00000  -0.00913   0.00000   0.00000  -0.00197
   3        2PX         0.00000   0.00000   0.00000   0.00122   0.00000
   4        2PY        -0.00057  -0.00000   0.00122   0.00000   0.00000
   5        2PZ        -0.00000   0.00094   0.00000   0.00000  -0.00088
   6        3S         -0.00000   0.04924   0.00000   0.00000  -0.00537
   7        3PX         0.00000   0.00000   0.00000  -0.00922   0.00000
   8        3PY         0.02576   0.00000  -0.00922   0.00000  -0.00000
   9        3PZ         0.00000  -0.02077  -0.00000   0.00000   0.00623
  10 2   P  1S          0.00000  -0.00005   0.00000   0.00000  -0.00010
  11        2S          0.00000  -0.00023  -0.00000   0.00000   0.00077
  12        2PX         0.00000   0.00000   0.00000  -0.00007   0.00000
  13        2PY         0.00036   0.00000  -0.00007   0.00000  -0.00000
  14        2PZ         0.00000  -0.00050  -0.00000   0.00000   0.00005
  15        3S          0.00000  -0.00830  -0.00000   0.00000   0.00499
  16        3PX         0.00000   0.00000   0.00000   0.00074   0.00000
  17        3PY        -0.00239  -0.00000   0.00074   0.00000   0.00000
  18        3PZ        -0.00000   0.00365   0.00000   0.00000  -0.00068
  19        4S         -0.00000   0.01589   0.00000   0.00000  -0.01317
  20        4PX         0.00000   0.00000   0.00000  -0.00357   0.00000
  21        4PY         0.00400   0.00000  -0.00357   0.00000  -0.00000
  22        4PZ         0.00000  -0.00670  -0.00000   0.00000   0.00492
  23 3   Cl 1S         -0.24975  -0.17667  -0.00260   0.00000  -0.00176
  24        2S          0.80233   0.56784   0.00909   0.00000   0.00604
  25        2PX         0.00000   0.00000   0.00000   0.00840   0.00000
  26        2PY        -0.00574  -0.00437   0.74156   0.00000   0.52252
  27        2PZ         0.00336   0.00241  -0.28519   0.00000  -0.20693
  28        3S          0.11980   0.08204  -0.00715   0.00000  -0.00159
  29        3PX         0.00000   0.00000   0.00000   0.00120   0.00000
  30        3PY        -0.00612  -0.00216   0.06383   0.00000   0.04382
  31        3PZ         0.00244   0.00140  -0.02450   0.00000  -0.01769
  32        4S         -0.06829  -0.04880   0.01411   0.00000   0.00350
  33        4PX         0.00000   0.00000   0.00000  -0.00094   0.00000
  34        4PY         0.01816   0.01344  -0.02674   0.00000  -0.01476
  35        4PZ        -0.00779  -0.00336   0.01022   0.00000   0.00631
  36 4   Cl 1S          0.12488  -0.17667   0.00130  -0.00225  -0.00176
  37        2S         -0.40117   0.56784  -0.00455   0.00787   0.00604
  38        2PX         0.00254  -0.00378  -0.31747   0.55827   0.45251
  39        2PY        -0.00134   0.00218   0.19169  -0.31747  -0.26126
  40        2PZ        -0.00168   0.00241   0.14260  -0.24698  -0.20693
  41        3S         -0.05990   0.08204   0.00357  -0.00619  -0.00159
  42        3PX         0.00228  -0.00187  -0.02712   0.04817   0.03795
  43        3PY        -0.00217   0.00108   0.01685  -0.02712  -0.02191
  44        3PZ        -0.00122   0.00140   0.01225  -0.02121  -0.01769
  45        4S          0.03415  -0.04880  -0.00706   0.01222   0.00350
  46        4PX        -0.00849   0.01164   0.01117  -0.02029  -0.01279
  47        4PY         0.00345  -0.00672  -0.00739   0.01117   0.00738
  48        4PZ         0.00389  -0.00336  -0.00511   0.00885   0.00631
  49 5   Cl 1S          0.12488  -0.17667   0.00130   0.00225  -0.00176
  50        2S         -0.40117   0.56784  -0.00455  -0.00787   0.00604
  51        2PX        -0.00254   0.00378   0.31747   0.55827  -0.45251
  52        2PY        -0.00134   0.00218   0.19169   0.31747  -0.26126
  53        2PZ        -0.00168   0.00241   0.14260   0.24698  -0.20693
  54        3S         -0.05990   0.08204   0.00357   0.00619  -0.00159
  55        3PX        -0.00228   0.00187   0.02712   0.04817  -0.03795
  56        3PY        -0.00217   0.00108   0.01685   0.02712  -0.02191
  57        3PZ        -0.00122   0.00140   0.01225   0.02121  -0.01769
  58        4S          0.03415  -0.04880  -0.00706  -0.01222   0.00350
  59        4PX         0.00849  -0.01164  -0.01117  -0.02029   0.01279
  60        4PY         0.00345  -0.00672  -0.00739  -0.01117   0.00738
  61        4PZ         0.00389  -0.00336  -0.00511  -0.00885   0.00631
  62 6   H  1S         -0.00091  -0.00033   0.00023   0.00000   0.00023
  63        2S          0.00455  -0.00161  -0.00273   0.00000   0.00153
  64 7   H  1S          0.00046  -0.00033  -0.00011  -0.00020   0.00023
  65        2S         -0.00228  -0.00161   0.00136   0.00236   0.00153
  66 8   H  1S          0.00046  -0.00033  -0.00011   0.00020   0.00023
  67        2S         -0.00228  -0.00161   0.00136  -0.00236   0.00153
                          11        12        13        14        15
                        (E)--O    (E)--O    (A2)--O   (A1)--O   (E)--O
     Eigenvalues --    -7.93749  -7.93749  -7.93738  -7.93734  -7.93715
   1 1   B  1S          0.00000  -0.00000   0.00000   0.00041  -0.00000
   2        2S          0.00000  -0.00000   0.00000   0.00099  -0.00000
   3        2PX        -0.00031   0.00000  -0.00000   0.00000   0.00000
   4        2PY         0.00000  -0.00031   0.00000  -0.00000  -0.00140
   5        2PZ         0.00000   0.00000   0.00000  -0.00174   0.00000
   6        3S          0.00000   0.00000   0.00000  -0.00478   0.00000
   7        3PX         0.00175   0.00000   0.00000   0.00000   0.00000
   8        3PY         0.00000   0.00175   0.00000   0.00000   0.00894
   9        3PZ         0.00000  -0.00000   0.00000   0.00961  -0.00000
  10 2   P  1S          0.00000  -0.00000   0.00000   0.00012  -0.00000
  11        2S          0.00000   0.00000   0.00000  -0.00067   0.00000
  12        2PX         0.00019   0.00000   0.00000   0.00000   0.00000
  13        2PY         0.00000   0.00019   0.00000   0.00000   0.00001
  14        2PZ         0.00000   0.00000   0.00000  -0.00012   0.00000
  15        3S          0.00000   0.00000   0.00000  -0.00396   0.00000
  16        3PX        -0.00168   0.00000  -0.00000   0.00000   0.00000
  17        3PY         0.00000  -0.00168   0.00000  -0.00000  -0.00001
  18        3PZ         0.00000  -0.00000   0.00000   0.00128  -0.00000
  19        4S          0.00000  -0.00000   0.00000   0.00324  -0.00000
  20        4PX         0.00702   0.00000   0.00000   0.00000   0.00000
  21        4PY         0.00000   0.00702   0.00000   0.00000  -0.00350
  22        4PZ         0.00000   0.00000   0.00000  -0.00139   0.00000
  23 3   Cl 1S          0.00000   0.00034   0.00000   0.00025  -0.00007
  24        2S          0.00000  -0.00111   0.00000  -0.00088   0.00030
  25        2PX         0.12947   0.00000   0.56234   0.00000   0.00000
  26        2PY         0.00000   0.28039   0.00000   0.20722  -0.05439
  27        2PZ         0.00000   0.73291   0.00000   0.52295  -0.11793
  28        3S          0.00000  -0.00043   0.00000   0.00044  -0.00096
  29        3PX         0.01093   0.00000   0.04661   0.00000   0.00000
  30        3PY         0.00000   0.02320   0.00000   0.01653  -0.00383
  31        3PZ         0.00000   0.06030   0.00000   0.04259  -0.00945
  32        4S          0.00000  -0.00009   0.00000   0.00143  -0.00203
  33        4PX        -0.00461   0.00000  -0.01618   0.00000   0.00000
  34        4PY         0.00000  -0.00772   0.00000  -0.00601   0.00145
  35        4PZ         0.00000  -0.01994   0.00000  -0.01380   0.00150
  36 4   Cl 1S          0.00029  -0.00017  -0.00000   0.00025   0.00003
  37        2S         -0.00096   0.00056   0.00000  -0.00088  -0.00015
  38        2PX         0.24266  -0.06535  -0.28117   0.17945   0.36343
  39        2PY        -0.06535   0.16720  -0.48700  -0.10361   0.57508
  40        2PZ         0.63472  -0.36646   0.00000   0.52295   0.05896
  41        3S         -0.00037   0.00021  -0.00000   0.00044   0.00048
  42        3PX         0.02014  -0.00532  -0.02331   0.01432   0.02913
  43        3PY        -0.00532   0.01400  -0.04037  -0.00827   0.04662
  44        3PZ         0.05222  -0.03015   0.00000   0.04259   0.00472
  45        4S         -0.00008   0.00005  -0.00000   0.00143   0.00101
  46        4PX        -0.00694   0.00135   0.00809  -0.00521  -0.00913
  47        4PY         0.00135  -0.00539   0.01401   0.00301  -0.01436
  48        4PZ        -0.01727   0.00997  -0.00000  -0.01380  -0.00075
  49 5   Cl 1S         -0.00029  -0.00017   0.00000   0.00025   0.00003
  50        2S          0.00096   0.00056  -0.00000  -0.00088  -0.00015
  51        2PX         0.24266   0.06535  -0.28117  -0.17945  -0.36343
  52        2PY         0.06535   0.16720   0.48700  -0.10361   0.57508
  53        2PZ        -0.63472  -0.36646  -0.00000   0.52295   0.05896
  54        3S          0.00037   0.00021   0.00000   0.00044   0.00048
  55        3PX         0.02014   0.00532  -0.02331  -0.01432  -0.02913
  56        3PY         0.00532   0.01400   0.04037  -0.00827   0.04662
  57        3PZ        -0.05222  -0.03015  -0.00000   0.04259   0.00472
  58        4S          0.00008   0.00005   0.00000   0.00143   0.00101
  59        4PX        -0.00694  -0.00135   0.00809   0.00521   0.00913
  60        4PY        -0.00135  -0.00539  -0.01401   0.00301  -0.01436
  61        4PZ         0.01727   0.00997   0.00000  -0.01380  -0.00075
  62 6   H  1S          0.00000  -0.00009   0.00000  -0.00030   0.00025
  63        2S          0.00000   0.00371   0.00000  -0.00037  -0.00215
  64 7   H  1S          0.00008   0.00005  -0.00000  -0.00030  -0.00013
  65        2S         -0.00321  -0.00185   0.00000  -0.00037   0.00108
  66 8   H  1S         -0.00008   0.00005   0.00000  -0.00030  -0.00013
  67        2S          0.00321  -0.00185  -0.00000  -0.00037   0.00108
                          16        17        18        19        20
                        (E)--O    (A1)--O   (A1)--O   (E)--O    (E)--O
     Eigenvalues --    -7.93715  -7.70950  -7.58029  -5.46533  -5.46533
   1 1   B  1S          0.00000   0.99068   0.00279   0.00000   0.00000
   2        2S          0.00000   0.10689  -0.00123  -0.00000   0.00000
   3        2PX        -0.00140   0.00000   0.00000   0.00000  -0.00066
   4        2PY         0.00000  -0.00000   0.00000  -0.00066   0.00000
   5        2PZ         0.00000   0.00149  -0.00066  -0.00000   0.00000
   6        3S          0.00000  -0.11883   0.01353   0.00000   0.00000
   7        3PX         0.00894   0.00000   0.00000   0.00000   0.00037
   8        3PY         0.00000  -0.00000  -0.00000   0.00037   0.00000
   9        3PZ         0.00000  -0.00728   0.01634   0.00000   0.00000
  10 2   P  1S          0.00000   0.00071  -0.29551  -0.00000   0.00000
  11        2S          0.00000  -0.00315   0.99705   0.00000   0.00000
  12        2PX         0.00001   0.00000   0.00000   0.00000   0.97219
  13        2PY         0.00000   0.00000   0.00000   0.97219   0.00000
  14        2PZ         0.00000  -0.00011   0.00483  -0.00000   0.00000
  15        3S          0.00000  -0.00811   0.13943   0.00000   0.00000
  16        3PX        -0.00001   0.00000   0.00000   0.00000   0.09097
  17        3PY         0.00000   0.00000   0.00000   0.09097   0.00000
  18        3PZ         0.00000  -0.00089  -0.00219  -0.00000   0.00000
  19        4S          0.00000   0.04212  -0.11140  -0.00000   0.00000
  20        4PX        -0.00350   0.00000   0.00000   0.00000  -0.03866
  21        4PY         0.00000   0.00000   0.00000  -0.03866   0.00000
  22        4PZ         0.00000  -0.01859   0.00860   0.00000   0.00000
  23 3   Cl 1S          0.00000  -0.00012  -0.00010  -0.00005   0.00000
  24        2S          0.00000   0.00051   0.00049   0.00028   0.00000
  25        2PX         0.78490   0.00000   0.00000   0.00000   0.00008
  26        2PY         0.00000  -0.00115  -0.00025   0.00002   0.00000
  27        2PZ         0.00000   0.00020   0.00063   0.00024   0.00000
  28        3S          0.00000  -0.00579  -0.00415  -0.00327   0.00000
  29        3PX         0.06344   0.00000   0.00000   0.00000  -0.00037
  30        3PY         0.00000   0.00023   0.00073   0.00009   0.00000
  31        3PZ         0.00000   0.00016  -0.00141  -0.00129   0.00000
  32        4S          0.00000   0.02580   0.00749   0.00592   0.00000
  33        4PX        -0.01963   0.00000   0.00000   0.00000   0.00106
  34        4PY         0.00000  -0.01226  -0.00328  -0.00138   0.00000
  35        4PZ         0.00000   0.00413   0.00309   0.00473   0.00000
  36 4   Cl 1S         -0.00006  -0.00012  -0.00010   0.00003  -0.00005
  37        2S          0.00026   0.00051   0.00049  -0.00014   0.00024
  38        2PX         0.15543  -0.00100  -0.00021   0.00002   0.00004
  39        2PY         0.36343   0.00057   0.00012   0.00007   0.00002
  40        2PZ        -0.10213   0.00020   0.00063  -0.00012   0.00021
  41        3S         -0.00083  -0.00579  -0.00415   0.00164  -0.00283
  42        3PX         0.01299   0.00020   0.00063  -0.00020  -0.00002
  43        3PY         0.02913  -0.00011  -0.00037  -0.00025  -0.00020
  44        3PZ        -0.00818   0.00016  -0.00141   0.00064  -0.00112
  45        4S         -0.00175   0.02580   0.00749  -0.00296   0.00512
  46        4PX        -0.00382  -0.01061  -0.00284   0.00106  -0.00077
  47        4PY        -0.00913   0.00613   0.00164   0.00045   0.00106
  48        4PZ         0.00130   0.00413   0.00309  -0.00237   0.00410
  49 5   Cl 1S          0.00006  -0.00012  -0.00010   0.00003   0.00005
  50        2S         -0.00026   0.00051   0.00049  -0.00014  -0.00024
  51        2PX         0.15543   0.00100   0.00021  -0.00002   0.00004
  52        2PY        -0.36343   0.00057   0.00012   0.00007  -0.00002
  53        2PZ         0.10213   0.00020   0.00063  -0.00012  -0.00021
  54        3S          0.00083  -0.00579  -0.00415   0.00164   0.00283
  55        3PX         0.01299  -0.00020  -0.00063   0.00020  -0.00002
  56        3PY        -0.02913  -0.00011  -0.00037  -0.00025   0.00020
  57        3PZ         0.00818   0.00016  -0.00141   0.00064   0.00112
  58        4S          0.00175   0.02580   0.00749  -0.00296  -0.00512
  59        4PX        -0.00382   0.01061   0.00284  -0.00106  -0.00077
  60        4PY         0.00913   0.00613   0.00164   0.00045  -0.00106
  61        4PZ        -0.00130   0.00413   0.00309  -0.00237  -0.00410
  62 6   H  1S          0.00000  -0.00100  -0.00535   0.00768   0.00000
  63        2S          0.00000  -0.00247   0.02040  -0.01458   0.00000
  64 7   H  1S         -0.00022  -0.00100  -0.00535  -0.00384  -0.00665
  65        2S          0.00186  -0.00247   0.02040   0.00729   0.01262
  66 8   H  1S          0.00022  -0.00100  -0.00535  -0.00384   0.00665
  67        2S         -0.00186  -0.00247   0.02040   0.00729  -0.01262
                          21        22        23        24        25
                        (A1)--O   (A1)--O   (E)--O    (E)--O    (A1)--O
     Eigenvalues --    -5.46443  -1.13986  -1.06964  -1.06964  -1.01356
   1 1   B  1S         -0.00138  -0.10181  -0.00000   0.00000  -0.01665
   2        2S         -0.00406   0.10369  -0.00000   0.00000   0.02550
   3        2PX         0.00000   0.00000   0.00000   0.10930   0.00000
   4        2PY        -0.00000   0.00000   0.10930   0.00000  -0.00000
   5        2PZ         0.00344  -0.02692   0.00000   0.00000   0.08572
   6        3S          0.01671   0.23622   0.00000   0.00000   0.01361
   7        3PX         0.00000   0.00000   0.00000  -0.00008   0.00000
   8        3PY         0.00000  -0.00000  -0.00008   0.00000   0.00000
   9        3PZ        -0.00145   0.03535  -0.00000   0.00000  -0.01837
  10 2   P  1S          0.00137   0.01541   0.00000   0.00000   0.06382
  11        2S         -0.00487  -0.07960  -0.00000   0.00000  -0.34247
  12        2PX         0.00000   0.00000   0.00000  -0.00725   0.00000
  13        2PY         0.00000   0.00000  -0.00725   0.00000  -0.00000
  14        2PZ         0.97238   0.01437   0.00000   0.00000  -0.01708
  15        3S         -0.00226   0.11524   0.00000   0.00000   0.39829
  16        3PX         0.00000   0.00000   0.00000   0.01431   0.00000
  17        3PY         0.00000  -0.00000   0.01431   0.00000   0.00000
  18        3PZ         0.09115  -0.02480   0.00000   0.00000   0.03532
  19        4S         -0.00374  -0.00063  -0.00000   0.00000   0.46571
  20        4PX         0.00000   0.00000   0.00000   0.00209   0.00000
  21        4PY        -0.00000   0.00000   0.00209   0.00000  -0.00000
  22        4PZ        -0.03075   0.03281   0.00000   0.00000  -0.00999
  23 3   Cl 1S          0.00004   0.03953   0.06436   0.00000  -0.01283
  24        2S         -0.00019  -0.23142  -0.37846   0.00000   0.07572
  25        2PX         0.00000   0.00000   0.00000  -0.00643   0.00000
  26        2PY        -0.00002   0.02846   0.02210   0.00000  -0.00280
  27        2PZ        -0.00008  -0.01125  -0.01372   0.00000  -0.00502
  28        3S          0.00366   0.29898   0.46749   0.00000  -0.08903
  29        3PX         0.00000   0.00000   0.00000   0.01423   0.00000
  30        3PY        -0.00016  -0.05831  -0.04358   0.00000   0.00533
  31        3PZ         0.00064   0.02260   0.02709   0.00000   0.01192
  32        4S         -0.00998   0.19856   0.42936   0.00000  -0.10404
  33        4PX         0.00000   0.00000   0.00000   0.00222   0.00000
  34        4PY         0.00460  -0.00946  -0.04251   0.00000   0.01313
  35        4PZ        -0.00428   0.00493   0.02637   0.00000  -0.00440
  36 4   Cl 1S          0.00004   0.03953  -0.03218   0.05573  -0.01283
  37        2S         -0.00019  -0.23142   0.18923  -0.32775   0.07572
  38        2PX        -0.00002   0.02465  -0.01235   0.01497  -0.00242
  39        2PY         0.00001  -0.01423   0.00071  -0.01235   0.00140
  40        2PZ        -0.00008  -0.01125   0.00686  -0.01189  -0.00502
  41        3S          0.00366   0.29898  -0.23375   0.40486  -0.08903
  42        3PX        -0.00014  -0.05049   0.02503  -0.02913   0.00462
  43        3PY         0.00008   0.02915  -0.00023   0.02503  -0.00267
  44        3PZ         0.00064   0.02260  -0.01354   0.02346   0.01192
  45        4S         -0.00998   0.19856  -0.21468   0.37183  -0.10404
  46        4PX         0.00399  -0.00819   0.01937  -0.03132   0.01138
  47        4PY        -0.00230   0.00473  -0.00896   0.01937  -0.00657
  48        4PZ        -0.00428   0.00493  -0.01318   0.02283  -0.00440
  49 5   Cl 1S          0.00004   0.03953  -0.03218  -0.05573  -0.01283
  50        2S         -0.00019  -0.23142   0.18923   0.32775   0.07572
  51        2PX         0.00002  -0.02465   0.01235   0.01497   0.00242
  52        2PY         0.00001  -0.01423   0.00071   0.01235   0.00140
  53        2PZ        -0.00008  -0.01125   0.00686   0.01189  -0.00502
  54        3S          0.00366   0.29898  -0.23375  -0.40486  -0.08903
  55        3PX         0.00014   0.05049  -0.02503  -0.02913  -0.00462
  56        3PY         0.00008   0.02915  -0.00023  -0.02503  -0.00267
  57        3PZ         0.00064   0.02260  -0.01354  -0.02346   0.01192
  58        4S         -0.00998   0.19856  -0.21468  -0.37183  -0.10404
  59        4PX        -0.00399   0.00819  -0.01937  -0.03132  -0.01138
  60        4PY        -0.00230   0.00473  -0.00896  -0.01937  -0.00657
  61        4PZ        -0.00428   0.00493  -0.01318  -0.02283  -0.00440
  62 6   H  1S         -0.00248   0.02249  -0.00326   0.00000   0.12270
  63        2S          0.00385   0.01025  -0.00447   0.00000   0.03631
  64 7   H  1S         -0.00248   0.02249   0.00163   0.00282   0.12270
  65        2S          0.00385   0.01025   0.00224   0.00387   0.03631
  66 8   H  1S         -0.00248   0.02249   0.00163  -0.00282   0.12270
  67        2S          0.00385   0.01025   0.00224  -0.00387   0.03631
                          26        27        28        29        30
                        (A1)--O   (E)--O    (E)--O    (A1)--O   (E)--O
     Eigenvalues --    -0.70462  -0.67459  -0.67459  -0.58031  -0.54326
   1 1   B  1S         -0.15719   0.00000  -0.00000   0.03937   0.00000
   2        2S          0.14100   0.00000  -0.00000  -0.04091   0.00000
   3        2PX         0.00000   0.05634   0.00000   0.00000   0.00000
   4        2PY        -0.00000   0.00000   0.05634   0.00000  -0.25255
   5        2PZ         0.07921   0.00000   0.00000   0.25630   0.00000
   6        3S          0.64948   0.00000   0.00000  -0.20586  -0.00000
   7        3PX         0.00000   0.02996   0.00000   0.00000   0.00000
   8        3PY         0.00000   0.00000   0.02996  -0.00000  -0.26092
   9        3PZ         0.10477   0.00000   0.00000   0.17971   0.00000
  10 2   P  1S         -0.00280   0.00000  -0.00000   0.00468   0.00000
  11        2S          0.01911   0.00000   0.00000  -0.02744   0.00000
  12        2PX         0.00000  -0.20176   0.00000   0.00000   0.00000
  13        2PY         0.00000   0.00000  -0.20176  -0.00000  -0.03383
  14        2PZ         0.13572   0.00000   0.00000   0.12103   0.00000
  15        3S          0.01442   0.00000   0.00000   0.01816   0.00000
  16        3PX         0.00000   0.40771   0.00000   0.00000   0.00000
  17        3PY        -0.00000   0.00000   0.40771   0.00000   0.06825
  18        3PZ        -0.27020   0.00000  -0.00000  -0.24591  -0.00000
  19        4S         -0.19217   0.00000  -0.00000   0.09023  -0.00000
  20        4PX         0.00000   0.16484   0.00000   0.00000   0.00000
  21        4PY         0.00000   0.00000   0.16484   0.00000   0.07299
  22        4PZ        -0.05523   0.00000  -0.00000  -0.17778  -0.00000
  23 3   Cl 1S         -0.01822   0.00000  -0.00589   0.00761   0.01287
  24        2S          0.10977   0.00000   0.03541  -0.04628  -0.07833
  25        2PX         0.00000  -0.01359   0.00000   0.00000   0.00000
  26        2PY         0.06994   0.00000   0.01749  -0.10291  -0.14357
  27        2PZ        -0.03680   0.00000  -0.02209  -0.05145   0.06463
  28        3S         -0.11708   0.00000  -0.04382   0.04359   0.08451
  29        3PX         0.00000   0.02939   0.00000   0.00000   0.00000
  30        3PY        -0.14836   0.00000  -0.03684   0.22232   0.30732
  31        3PZ         0.07857   0.00000   0.04717   0.11271  -0.13909
  32        4S         -0.26336   0.00000  -0.06181   0.14051   0.23120
  33        4PX         0.00000   0.01719   0.00000   0.00000   0.00000
  34        4PY        -0.03352   0.00000  -0.01686   0.11531   0.17899
  35        4PZ         0.01602   0.00000   0.02809   0.07565  -0.07493
  36 4   Cl 1S         -0.01822  -0.00510   0.00294   0.00761  -0.00643
  37        2S          0.10977   0.03067  -0.01771  -0.04628   0.03916
  38        2PX         0.06057   0.00972  -0.01346  -0.08912   0.11236
  39        2PY        -0.03497  -0.01346  -0.00582   0.05146   0.05104
  40        2PZ        -0.03680  -0.01913   0.01104  -0.05145  -0.03232
  41        3S         -0.11708  -0.03795   0.02191   0.04359  -0.04226
  42        3PX        -0.12848  -0.02028   0.02868   0.19253  -0.24279
  43        3PY         0.07418   0.02868   0.01283  -0.11116  -0.11321
  44        3PZ         0.07857   0.04085  -0.02359   0.11271   0.06954
  45        4S         -0.26336  -0.05353   0.03090   0.14051  -0.11560
  46        4PX        -0.02903  -0.00835   0.01474   0.09986  -0.14588
  47        4PY         0.01676   0.01474   0.00868  -0.05765  -0.07368
  48        4PZ         0.01602   0.02433  -0.01405   0.07565   0.03747
  49 5   Cl 1S         -0.01822   0.00510   0.00294   0.00761  -0.00643
  50        2S          0.10977  -0.03067  -0.01771  -0.04628   0.03916
  51        2PX        -0.06057   0.00972   0.01346   0.08912  -0.11236
  52        2PY        -0.03497   0.01346  -0.00582   0.05146   0.05104
  53        2PZ        -0.03680   0.01913   0.01104  -0.05145  -0.03232
  54        3S         -0.11708   0.03795   0.02191   0.04359  -0.04226
  55        3PX         0.12848  -0.02028  -0.02868  -0.19253   0.24279
  56        3PY         0.07418  -0.02868   0.01283  -0.11116  -0.11321
  57        3PZ         0.07857  -0.04085  -0.02359   0.11271   0.06954
  58        4S         -0.26336   0.05353   0.03090   0.14051  -0.11560
  59        4PX         0.02903  -0.00835  -0.01474  -0.09986   0.14588
  60        4PY         0.01676  -0.01474   0.00868  -0.05765  -0.07368
  61        4PZ         0.01602  -0.02433  -0.01405   0.07565   0.03747
  62 6   H  1S         -0.06373   0.00000  -0.25318  -0.04607  -0.06269
  63        2S         -0.05773   0.00000  -0.29152  -0.06343  -0.07297
  64 7   H  1S         -0.06373   0.21926   0.12659  -0.04607   0.03134
  65        2S         -0.05773   0.25246   0.14576  -0.06343   0.03648
  66 8   H  1S         -0.06373  -0.21926   0.12659  -0.04607   0.03134
  67        2S         -0.05773  -0.25246   0.14576  -0.06343   0.03648
                          31        32        33        34        35
                        (E)--O    (E)--O    (E)--O    (A1)--O   (E)--O
     Eigenvalues --    -0.54326  -0.45994  -0.45994  -0.43136  -0.42852
   1 1   B  1S          0.00000   0.00000   0.00000  -0.00382   0.00000
   2        2S          0.00000   0.00000   0.00000   0.00130   0.00000
   3        2PX         0.25255   0.08053   0.00000   0.00000  -0.10850
   4        2PY         0.00000   0.00000   0.08053   0.00000   0.00000
   5        2PZ         0.00000   0.00000   0.00000  -0.14150   0.00000
   6        3S          0.00000   0.00000  -0.00000   0.02327   0.00000
   7        3PX         0.26092  -0.01543   0.00000   0.00000   0.05085
   8        3PY         0.00000   0.00000  -0.01543  -0.00000   0.00000
   9        3PZ         0.00000   0.00000  -0.00000   0.07437   0.00000
  10 2   P  1S          0.00000   0.00000   0.00000  -0.01481   0.00000
  11        2S          0.00000   0.00000  -0.00000   0.08328   0.00000
  12        2PX         0.03383   0.01066   0.00000   0.00000   0.01013
  13        2PY         0.00000   0.00000   0.01066  -0.00000   0.00000
  14        2PZ         0.00000   0.00000   0.00000  -0.12480   0.00000
  15        3S          0.00000   0.00000  -0.00000  -0.10190   0.00000
  16        3PX        -0.06825  -0.02864   0.00000   0.00000  -0.02800
  17        3PY         0.00000   0.00000  -0.02864   0.00000   0.00000
  18        3PZ         0.00000   0.00000  -0.00000   0.26980   0.00000
  19        4S          0.00000   0.00000   0.00000  -0.29430   0.00000
  20        4PX        -0.07299   0.07237   0.00000   0.00000   0.02297
  21        4PY         0.00000   0.00000   0.07237  -0.00000   0.00000
  22        4PZ         0.00000   0.00000  -0.00000   0.25591   0.00000
  23 3   Cl 1S          0.00000   0.00000  -0.00310  -0.00128   0.00000
  24        2S          0.00000   0.00000   0.01865   0.00756   0.00000
  25        2PX        -0.11591   0.13343   0.00000   0.00000  -0.13363
  26        2PY         0.00000   0.00000   0.01345   0.00982   0.00000
  27        2PZ         0.00000   0.00000  -0.17970  -0.14302   0.00000
  28        3S          0.00000   0.00000  -0.03744  -0.02430   0.00000
  29        3PX         0.25338  -0.28715   0.00000   0.00000   0.29057
  30        3PY         0.00000   0.00000  -0.02733  -0.02022   0.00000
  31        3PZ         0.00000   0.00000   0.38771   0.30882   0.00000
  32        4S          0.00000   0.00000   0.00907   0.03495   0.00000
  33        4PX         0.15791  -0.25829   0.00000   0.00000   0.25075
  34        4PY         0.00000   0.00000  -0.03233  -0.03286   0.00000
  35        4PZ         0.00000   0.00000   0.34353   0.28293   0.00000
  36 4   Cl 1S         -0.01114  -0.00268   0.00155  -0.00128  -0.00049
  37        2S          0.06783   0.01615  -0.00932   0.00756   0.00305
  38        2PX         0.07870   0.04345   0.05195   0.00851  -0.15088
  39        2PY        -0.11236   0.05195   0.10344  -0.00491   0.00996
  40        2PZ        -0.05597  -0.15562   0.08985  -0.14302  -0.09702
  41        3S         -0.07319  -0.03243   0.01872  -0.02430  -0.00013
  42        3PX        -0.16714  -0.09229  -0.11250  -0.01751   0.32733
  43        3PY         0.24279  -0.11250  -0.22219   0.01011  -0.02122
  44        3PZ         0.12045   0.33577  -0.19386   0.30882   0.21129
  45        4S         -0.20022   0.00786  -0.00454   0.03495  -0.03438
  46        4PX        -0.09477  -0.08882  -0.09785  -0.02845   0.29842
  47        4PY         0.14588  -0.09785  -0.20180   0.01643  -0.02752
  48        4PZ         0.06490   0.29751  -0.17177   0.28293   0.18015
  49 5   Cl 1S          0.01114   0.00268   0.00155  -0.00128   0.00049
  50        2S         -0.06783  -0.01615  -0.00932   0.00756  -0.00305
  51        2PX         0.07870   0.04345  -0.05195  -0.00851  -0.15088
  52        2PY         0.11236  -0.05195   0.10344  -0.00491  -0.00996
  53        2PZ         0.05597   0.15562   0.08985  -0.14302   0.09702
  54        3S          0.07319   0.03243   0.01872  -0.02430   0.00013
  55        3PX        -0.16714  -0.09229   0.11250   0.01751   0.32733
  56        3PY        -0.24279   0.11250  -0.22219   0.01011   0.02122
  57        3PZ        -0.12045  -0.33577  -0.19386   0.30882  -0.21129
  58        4S          0.20022  -0.00786  -0.00454   0.03495   0.03438
  59        4PX        -0.09477  -0.08882   0.09785   0.02845   0.29842
  60        4PY        -0.14588   0.09785  -0.20180   0.01643   0.02752
  61        4PZ        -0.06490  -0.29751  -0.17177   0.28293  -0.18015
  62 6   H  1S          0.00000   0.00000   0.02983   0.02911   0.00000
  63        2S          0.00000   0.00000   0.09756   0.08240   0.00000
  64 7   H  1S         -0.05429  -0.02583  -0.01491   0.02911  -0.01334
  65        2S         -0.06319  -0.08449  -0.04878   0.08240  -0.03165
  66 8   H  1S          0.05429   0.02583  -0.01491   0.02911   0.01334
  67        2S          0.06319   0.08449  -0.04878   0.08240   0.03165
                          36        37        38        39        40
                        (E)--O    (A2)--O   (E)--V    (E)--V    (A1)--V
     Eigenvalues --    -0.42852  -0.41778   0.12458   0.12458   0.12509
   1 1   B  1S         -0.00000   0.00000   0.00000  -0.00000  -0.11946
   2        2S         -0.00000   0.00000   0.00000   0.00000   0.01369
   3        2PX         0.00000  -0.00000   0.13225   0.00000   0.00000
   4        2PY        -0.10850   0.00000   0.00000   0.13225  -0.00000
   5        2PZ        -0.00000   0.00000   0.00000   0.00000   0.20577
   6        3S          0.00000   0.00000   0.00000   0.00000   1.94305
   7        3PX         0.00000  -0.00000   0.22479   0.00000   0.00000
   8        3PY         0.05085   0.00000   0.00000   0.22479  -0.00000
   9        3PZ         0.00000   0.00000   0.00000   0.00000   0.95933
  10 2   P  1S         -0.00000   0.00000   0.00000   0.00000   0.00977
  11        2S          0.00000   0.00000   0.00000  -0.00000  -0.04399
  12        2PX         0.00000   0.00000  -0.12845   0.00000   0.00000
  13        2PY         0.01013   0.00000   0.00000  -0.12845   0.00000
  14        2PZ        -0.00000   0.00000   0.00000  -0.00000  -0.08465
  15        3S         -0.00000   0.00000   0.00000   0.00000   0.18071
  16        3PX         0.00000  -0.00000   0.25844   0.00000   0.00000
  17        3PY        -0.02800   0.00000   0.00000   0.25844  -0.00000
  18        3PZ         0.00000   0.00000   0.00000   0.00000   0.10582
  19        4S         -0.00000   0.00000   0.00000  -0.00000  -0.13876
  20        4PX         0.00000   0.00000   1.41090   0.00000   0.00000
  21        4PY         0.02297   0.00000   0.00000   1.41090  -0.00000
  22        4PZ         0.00000   0.00000   0.00000   0.00000   1.80755
  23 3   Cl 1S         -0.00056   0.00000   0.00000  -0.00958  -0.00056
  24        2S          0.00352   0.00000   0.00000   0.05982   0.00468
  25        2PX         0.00000  -0.16889   0.01477   0.00000   0.00000
  26        2PY        -0.15663   0.00000   0.00000  -0.03706  -0.02076
  27        2PZ        -0.11203   0.00000   0.00000   0.05774   0.01122
  28        3S         -0.00015   0.00000   0.00000  -0.07560   0.04373
  29        3PX         0.00000   0.36854  -0.02849   0.00000   0.00000
  30        3PY         0.33958   0.00000   0.00000   0.07645   0.04448
  31        3PZ         0.24397   0.00000   0.00000  -0.12802  -0.01458
  32        4S         -0.03970   0.00000   0.00000  -0.21405  -0.21112
  33        4PX         0.00000   0.32224  -0.08730   0.00000   0.00000
  34        4PY         0.31431   0.00000   0.00000   0.19730   0.15250
  35        4PZ         0.20802   0.00000   0.00000  -0.20559  -0.18851
  36 4   Cl 1S          0.00028  -0.00000  -0.00830   0.00479  -0.00056
  37        2S         -0.00176  -0.00000   0.05181  -0.02991   0.00468
  38        2PX         0.00996   0.08445  -0.02410   0.02244  -0.01798
  39        2PY        -0.13938   0.14627   0.02244   0.00181   0.01038
  40        2PZ         0.05602  -0.00000   0.05001  -0.02887   0.01122
  41        3S          0.00007  -0.00000  -0.06547   0.03780   0.04373
  42        3PX        -0.02122  -0.18427   0.05022  -0.04544   0.03852
  43        3PY         0.30282  -0.31916  -0.04544  -0.00225  -0.02224
  44        3PZ        -0.12199   0.00000  -0.11087   0.06401  -0.01458
  45        4S          0.01985   0.00000  -0.18537   0.10702  -0.21112
  46        4PX        -0.02752  -0.16112   0.12615  -0.12323   0.13207
  47        4PY         0.26664  -0.27907  -0.12323  -0.01615  -0.07625
  48        4PZ        -0.10401   0.00000  -0.17805   0.10280  -0.18851
  49 5   Cl 1S          0.00028   0.00000   0.00830   0.00479  -0.00056
  50        2S         -0.00176   0.00000  -0.05181  -0.02991   0.00468
  51        2PX        -0.00996   0.08445  -0.02410  -0.02244   0.01798
  52        2PY        -0.13938  -0.14627  -0.02244   0.00181   0.01038
  53        2PZ         0.05602   0.00000  -0.05001  -0.02887   0.01122
  54        3S          0.00007   0.00000   0.06547   0.03780   0.04373
  55        3PX         0.02122  -0.18427   0.05022   0.04544  -0.03852
  56        3PY         0.30282   0.31916   0.04544  -0.00225  -0.02224
  57        3PZ        -0.12199  -0.00000   0.11087   0.06401  -0.01458
  58        4S          0.01985  -0.00000   0.18537   0.10702  -0.21112
  59        4PX         0.02752  -0.16112   0.12615   0.12323  -0.13207
  60        4PY         0.26664   0.27907   0.12323  -0.01615  -0.07625
  61        4PZ        -0.10401  -0.00000   0.17805   0.10280  -0.18851
  62 6   H  1S          0.01540   0.00000   0.00000   0.13569  -0.07058
  63        2S          0.03655   0.00000   0.00000   1.32265  -0.65828
  64 7   H  1S         -0.00770  -0.00000  -0.11751  -0.06785  -0.07058
  65        2S         -0.01828  -0.00000  -1.14545  -0.66132  -0.65828
  66 8   H  1S         -0.00770   0.00000   0.11751  -0.06785  -0.07058
  67        2S         -0.01828   0.00000   1.14545  -0.66132  -0.65828
                          41        42        43        44        45
                        (A1)--V   (E)--V    (E)--V    (A1)--V   (E)--V
     Eigenvalues --     0.19410   0.22929   0.22929   0.24803   0.50254
   1 1   B  1S          0.12511  -0.00000   0.00000  -0.16675   0.00000
   2        2S         -0.02526  -0.00000   0.00000   0.14259   0.00000
   3        2PX         0.00000   0.00000   0.38114   0.00000  -0.04758
   4        2PY        -0.00000   0.38114   0.00000  -0.00000   0.00000
   5        2PZ        -0.17444  -0.00000   0.00000  -0.35086   0.00000
   6        3S         -1.72451   0.00000   0.00000   1.78436   0.00000
   7        3PX         0.00000   0.00000   2.22701   0.00000  -0.38848
   8        3PY        -0.00000   2.22701   0.00000  -0.00000   0.00000
   9        3PZ        -0.96429  -0.00000   0.00000  -1.44642   0.00000
  10 2   P  1S          0.05153   0.00000   0.00000   0.00627   0.00000
  11        2S         -0.30922  -0.00000   0.00000  -0.03750   0.00000
  12        2PX         0.00000   0.00000   0.03862   0.00000   0.31363
  13        2PY         0.00000   0.03862   0.00000  -0.00000   0.00000
  14        2PZ        -0.03656  -0.00000   0.00000  -0.00215   0.00000
  15        3S          0.32593   0.00000   0.00000   0.04433   0.00000
  16        3PX         0.00000   0.00000  -0.03367   0.00000  -1.20147
  17        3PY        -0.00000  -0.03367   0.00000   0.00000   0.00000
  18        3PZ         0.16235   0.00000   0.00000   0.02225   0.00000
  19        4S          2.54706   0.00000   0.00000   0.54435   0.00000
  20        4PX         0.00000   0.00000  -1.28988   0.00000   1.39893
  21        4PY        -0.00000  -1.28988   0.00000   0.00000   0.00000
  22        4PZ        -0.62231  -0.00000   0.00000  -0.36806   0.00000
  23 3   Cl 1S          0.00456  -0.01417   0.00000  -0.01541   0.00000
  24        2S         -0.02888   0.09293   0.00000   0.09871   0.00000
  25        2PX         0.00000   0.00000   0.04870   0.00000   0.03058
  26        2PY         0.02479  -0.07595   0.00000  -0.08621   0.00000
  27        2PZ        -0.03182   0.02928   0.00000  -0.00265   0.00000
  28        3S          0.04005   0.03471   0.00000  -0.05566   0.00000
  29        3PX         0.00000   0.00000  -0.09368   0.00000  -0.09951
  30        3PY        -0.05510   0.14489   0.00000   0.16643   0.00000
  31        3PZ         0.07203  -0.05374   0.00000   0.00555   0.00000
  32        4S          0.13139  -1.28652   0.00000  -0.76646   0.00000
  33        4PX         0.00000   0.00000  -0.44722   0.00000   0.11378
  34        4PY        -0.13846   0.87873   0.00000   0.78315   0.00000
  35        4PZ         0.18504  -0.39703   0.00000   0.00995   0.00000
  36 4   Cl 1S          0.00456   0.00708  -0.01227  -0.01541  -0.00912
  37        2S         -0.02888  -0.04647   0.08048   0.09871   0.05519
  38        2PX         0.02147   0.05398  -0.04479  -0.07466   0.01979
  39        2PY        -0.01240   0.01754   0.05398   0.04310   0.00623
  40        2PZ        -0.03182  -0.01464   0.02536  -0.00265   0.04053
  41        3S          0.04005  -0.01736   0.03006  -0.05566  -0.22081
  42        3PX        -0.04772  -0.10331   0.08525   0.14414  -0.06285
  43        3PY         0.02755  -0.03404  -0.10331  -0.08322  -0.02117
  44        3PZ         0.07203   0.02687  -0.04654   0.00555  -0.11741
  45        4S          0.13139   0.64326  -1.11416  -0.76646   0.29988
  46        4PX        -0.11991  -0.57415   0.54724   0.67823  -0.01199
  47        4PY         0.06923  -0.11573  -0.57415  -0.39157   0.07261
  48        4PZ         0.18504   0.19852  -0.34384   0.00995   0.03695
  49 5   Cl 1S          0.00456   0.00708   0.01227  -0.01541   0.00912
  50        2S         -0.02888  -0.04647  -0.08048   0.09871  -0.05519
  51        2PX        -0.02147  -0.05398  -0.04479   0.07466   0.01979
  52        2PY        -0.01240   0.01754  -0.05398   0.04310  -0.00623
  53        2PZ        -0.03182  -0.01464  -0.02536  -0.00265  -0.04053
  54        3S          0.04005  -0.01736  -0.03006  -0.05566   0.22081
  55        3PX         0.04772   0.10331   0.08525  -0.14414  -0.06285
  56        3PY         0.02755  -0.03404   0.10331  -0.08322   0.02117
  57        3PZ         0.07203   0.02687   0.04654   0.00555   0.11741
  58        4S          0.13139   0.64326   1.11416  -0.76646  -0.29988
  59        4PX         0.11991   0.57415   0.54724  -0.67823  -0.01199
  60        4PY         0.06923  -0.11573   0.57415  -0.39157  -0.07261
  61        4PZ         0.18504   0.19852   0.34384   0.00995  -0.03695
  62 6   H  1S         -0.04981  -0.00770   0.00000   0.00921   0.00000
  63        2S         -0.87834  -0.75892   0.00000  -0.04356   0.00000
  64 7   H  1S         -0.04981   0.00385   0.00667   0.00921  -0.15142
  65        2S         -0.87834   0.37946   0.65724  -0.04356  -0.03891
  66 8   H  1S         -0.04981   0.00385  -0.00667   0.00921   0.15142
  67        2S         -0.87834   0.37946  -0.65724  -0.04356   0.03891
                          46        47        48        49        50
                        (E)--V    (A1)--V   (A1)--V   (E)--V    (E)--V
     Eigenvalues --     0.50254   0.53525   0.57622   0.66347   0.66347
   1 1   B  1S         -0.00000   0.07944   0.03090   0.00000   0.00000
   2        2S          0.00000  -0.21293  -0.10053  -0.00000   0.00000
   3        2PX         0.00000   0.00000   0.00000   0.00000  -1.13391
   4        2PY        -0.04758   0.00000   0.00000  -1.13391   0.00000
   5        2PZ        -0.00000  -0.10699   0.15443   0.00000   0.00000
   6        3S         -0.00000  -0.31287  -1.70262  -0.00000   0.00000
   7        3PX         0.00000   0.00000   0.00000   0.00000   2.27948
   8        3PY        -0.38848  -0.00000  -0.00000   2.27948   0.00000
   9        3PZ         0.00000  -0.80115  -0.39605  -0.00000   0.00000
  10 2   P  1S          0.00000  -0.01491  -0.03134  -0.00000   0.00000
  11        2S         -0.00000  -0.00514   0.05798   0.00000   0.00000
  12        2PX         0.00000   0.00000   0.00000   0.00000  -0.04852
  13        2PY         0.31363   0.00000   0.00000  -0.04852   0.00000
  14        2PZ        -0.00000   0.29305  -0.16991  -0.00000   0.00000
  15        3S          0.00000  -0.93057  -1.35113  -0.00000   0.00000
  16        3PX         0.00000   0.00000   0.00000   0.00000   0.19817
  17        3PY        -1.20147  -0.00000  -0.00000   0.19817   0.00000
  18        3PZ         0.00000  -1.09438   0.61120   0.00000   0.00000
  19        4S         -0.00000   2.39310   2.93852   0.00000   0.00000
  20        4PX         0.00000   0.00000   0.00000   0.00000  -0.88973
  21        4PY         1.39893   0.00000  -0.00000  -0.88973   0.00000
  22        4PZ        -0.00000   0.85632  -0.74492  -0.00000   0.00000
  23 3   Cl 1S         -0.01053  -0.00114  -0.02471  -0.00290   0.00000
  24        2S          0.06373   0.00693   0.14904   0.02135   0.00000
  25        2PX         0.00000   0.00000   0.00000   0.00000   0.07960
  26        2PY         0.01620   0.00430  -0.01068   0.06707   0.00000
  27        2PZ         0.04680  -0.01007   0.04480  -0.02669   0.00000
  28        3S         -0.25497  -0.05014  -0.67528  -0.00958   0.00000
  29        3PX         0.00000   0.00000   0.00000   0.00000  -0.24181
  30        3PY        -0.05063  -0.00346   0.04897  -0.16712   0.00000
  31        3PZ        -0.13558   0.00747  -0.13992   0.07035   0.00000
  32        4S          0.34627   0.01117   0.83053  -0.93764   0.00000
  33        4PX         0.00000   0.00000   0.00000   0.00000  -0.19069
  34        4PY        -0.05391   0.01657  -0.25066   0.41574   0.00000
  35        4PZ         0.04267   0.18829   0.14415  -0.24420   0.00000
  36 4   Cl 1S          0.00527  -0.00114  -0.02471   0.00145  -0.00251
  37        2S         -0.03186   0.00693   0.14904  -0.01068   0.01849
  38        2PX         0.00623   0.00372  -0.00925   0.00543   0.07020
  39        2PY         0.02699  -0.00215   0.00534   0.07647   0.00543
  40        2PZ        -0.02340  -0.01007   0.04480   0.01334  -0.02311
  41        3S          0.12748  -0.05014  -0.67528   0.00479  -0.00830
  42        3PX        -0.02117  -0.00300   0.04241  -0.03234  -0.18579
  43        3PY        -0.08729   0.00173  -0.02449  -0.22314  -0.03234
  44        3PZ         0.06779   0.00747  -0.13992  -0.03517   0.06092
  45        4S         -0.17313   0.01117   0.83053   0.46882  -0.81202
  46        4PX         0.07261   0.01435  -0.21708  -0.26259   0.26413
  47        4PY         0.07186  -0.00828   0.12533  -0.03908  -0.26259
  48        4PZ        -0.02133   0.18829   0.14415   0.12210  -0.21148
  49 5   Cl 1S          0.00527  -0.00114  -0.02471   0.00145   0.00251
  50        2S         -0.03186   0.00693   0.14904  -0.01068  -0.01849
  51        2PX        -0.00623  -0.00372   0.00925  -0.00543   0.07020
  52        2PY         0.02699  -0.00215   0.00534   0.07647  -0.00543
  53        2PZ        -0.02340  -0.01007   0.04480   0.01334   0.02311
  54        3S          0.12748  -0.05014  -0.67528   0.00479   0.00830
  55        3PX         0.02117   0.00300  -0.04241   0.03234  -0.18579
  56        3PY        -0.08729   0.00173  -0.02449  -0.22314   0.03234
  57        3PZ         0.06779   0.00747  -0.13992  -0.03517  -0.06092
  58        4S         -0.17313   0.01117   0.83053   0.46882   0.81202
  59        4PX        -0.07261  -0.01435   0.21708   0.26259   0.26413
  60        4PY         0.07186  -0.00828   0.12533  -0.03908   0.26259
  61        4PZ        -0.02133   0.18829   0.14415   0.12210   0.21148
  62 6   H  1S          0.17485  -0.16148  -0.10542   0.05246   0.00000
  63        2S          0.04494  -0.42234  -0.51252  -0.31453   0.00000
  64 7   H  1S         -0.08742  -0.16148  -0.10542  -0.02623  -0.04543
  65        2S         -0.02247  -0.42234  -0.51252   0.15726   0.27239
  66 8   H  1S         -0.08742  -0.16148  -0.10542  -0.02623   0.04543
  67        2S         -0.02247  -0.42234  -0.51252   0.15726  -0.27239
                          51        52        53        54        55
                        (A1)--V   (E)--V    (E)--V    (A1)--V   (E)--V
     Eigenvalues --     0.68560   0.77741   0.77741   0.79713   0.81200
   1 1   B  1S         -0.01847   0.00000   0.00000  -0.02441  -0.00000
   2        2S          0.10884  -0.00000   0.00000   0.34431   0.00000
   3        2PX         0.00000   0.00000   0.19037   0.00000   0.00000
   4        2PY        -0.00000   0.19037   0.00000   0.00000  -0.27738
   5        2PZ        -0.94500  -0.00000   0.00000   0.21947   0.00000
   6        3S         -0.04992   0.00000   0.00000  -1.71042   0.00000
   7        3PX         0.00000   0.00000  -0.96836   0.00000   0.00000
   8        3PY         0.00000  -0.96836   0.00000  -0.00000   1.35460
   9        3PZ         1.55281   0.00000   0.00000  -0.71091  -0.00000
  10 2   P  1S         -0.00188   0.00000   0.00000  -0.01370  -0.00000
  11        2S         -0.01334  -0.00000   0.00000   0.02539   0.00000
  12        2PX         0.00000   0.00000  -0.02658   0.00000   0.00000
  13        2PY         0.00000  -0.02658   0.00000   0.00000   0.01233
  14        2PZ        -0.01552   0.00000   0.00000  -0.03435  -0.00000
  15        3S         -0.25907   0.00000   0.00000  -0.57308  -0.00000
  16        3PX         0.00000   0.00000   0.11666   0.00000   0.00000
  17        3PY        -0.00000   0.11666   0.00000   0.00000  -0.03226
  18        3PZ         0.13621  -0.00000   0.00000   0.09163   0.00000
  19        4S         -0.24463  -0.00000   0.00000   1.72786   0.00000
  20        4PX         0.00000   0.00000   0.12494   0.00000   0.00000
  21        4PY        -0.00000   0.12494   0.00000   0.00000  -0.40660
  22        4PZ         0.25940   0.00000   0.00000  -0.47647  -0.00000
  23 3   Cl 1S          0.00899  -0.04136   0.00000   0.01444   0.00320
  24        2S         -0.05595   0.25094   0.00000  -0.08995  -0.01654
  25        2PX         0.00000   0.00000   0.01769   0.00000   0.00000
  26        2PY        -0.00119   0.17131   0.00000  -0.18046   0.10401
  27        2PZ         0.10841  -0.06559   0.00000   0.02521   0.06585
  28        3S          0.22348  -1.17388   0.00000   0.35704   0.17693
  29        3PX         0.00000   0.00000  -0.07960   0.00000   0.00000
  30        3PY        -0.01233  -0.59938   0.00000   0.61876  -0.35265
  31        3PZ        -0.34007   0.22136   0.00000  -0.09251  -0.22674
  32        4S          0.03465   1.56493   0.00000  -0.17429  -0.78412
  33        4PX         0.00000   0.00000   0.27630   0.00000   0.00000
  34        4PY        -0.13140   0.36200   0.00000  -0.68218   0.62442
  35        4PZ         0.06063  -0.05987   0.00000   0.22751   0.03653
  36 4   Cl 1S          0.00899   0.02068  -0.03582   0.01444  -0.00160
  37        2S         -0.05595  -0.12547   0.21732  -0.08995   0.00827
  38        2PX        -0.00103  -0.06652   0.13290  -0.15628  -0.15491
  39        2PY         0.00059   0.05609  -0.06652   0.09023  -0.16429
  40        2PZ         0.10841   0.03279  -0.05680   0.02521  -0.03293
  41        3S          0.22348   0.58694  -1.01661   0.35704  -0.08846
  42        3PX        -0.01068   0.22507  -0.46944   0.53586   0.53956
  43        3PY         0.00617  -0.20955   0.22507  -0.30938   0.58190
  44        3PZ        -0.34007  -0.11068   0.19171  -0.09251   0.11337
  45        4S          0.03465  -0.78247   1.35527  -0.17429   0.39206
  46        4PX        -0.11380  -0.03711   0.34057  -0.59078  -0.72560
  47        4PY         0.06570   0.29772  -0.03711   0.34109  -0.63235
  48        4PZ         0.06063   0.02993  -0.05185   0.22751  -0.01826
  49 5   Cl 1S          0.00899   0.02068   0.03582   0.01444  -0.00160
  50        2S         -0.05595  -0.12547  -0.21732  -0.08995   0.00827
  51        2PX         0.00103   0.06652   0.13290   0.15628   0.15491
  52        2PY         0.00059   0.05609   0.06652   0.09023  -0.16429
  53        2PZ         0.10841   0.03279   0.05680   0.02521  -0.03293
  54        3S          0.22348   0.58694   1.01661   0.35704  -0.08846
  55        3PX         0.01068  -0.22507  -0.46944  -0.53586  -0.53956
  56        3PY         0.00617  -0.20955  -0.22507  -0.30938   0.58190
  57        3PZ        -0.34007  -0.11068  -0.19171  -0.09251   0.11337
  58        4S          0.03465  -0.78247  -1.35527  -0.17429   0.39206
  59        4PX         0.11380   0.03711   0.34057   0.59078   0.72560
  60        4PY         0.06570   0.29772   0.03711   0.34109  -0.63235
  61        4PZ         0.06063   0.02993   0.05185   0.22751  -0.01826
  62 6   H  1S         -0.10842  -0.11713   0.00000   0.01558   0.00591
  63        2S         -0.06039   0.16711   0.00000  -0.25436  -0.19382
  64 7   H  1S         -0.10842   0.05856   0.10144   0.01558  -0.00296
  65        2S         -0.06039  -0.08355  -0.14472  -0.25436   0.09691
  66 8   H  1S         -0.10842   0.05856  -0.10144   0.01558  -0.00296
  67        2S         -0.06039  -0.08355   0.14472  -0.25436   0.09691
                          56        57        58        59        60
                        (E)--V    (A1)--V   (E)--V    (E)--V    (A2)--V
     Eigenvalues --     0.81200   0.81647   0.90863   0.90863   0.93291
   1 1   B  1S          0.00000   0.01853   0.00000   0.00000   0.00000
   2        2S          0.00000  -0.17634   0.00000   0.00000   0.00000
   3        2PX        -0.27738   0.00000   0.00000   0.05798   0.00000
   4        2PY         0.00000  -0.00000   0.05798   0.00000   0.00000
   5        2PZ         0.00000  -0.63435   0.00000   0.00000   0.00000
   6        3S          0.00000  -0.33952  -0.00000   0.00000   0.00000
   7        3PX         1.35460   0.00000   0.00000  -0.51181   0.00000
   8        3PY         0.00000   0.00000  -0.51181   0.00000   0.00000
   9        3PZ         0.00000   2.70421  -0.00000   0.00000   0.00000
  10 2   P  1S          0.00000   0.01314   0.00000   0.00000   0.00000
  11        2S          0.00000  -0.02239  -0.00000   0.00000   0.00000
  12        2PX         0.01233   0.00000   0.00000  -0.04255   0.00000
  13        2PY         0.00000   0.00000  -0.04255   0.00000   0.00000
  14        2PZ         0.00000   0.03835   0.00000   0.00000   0.00000
  15        3S          0.00000   0.55734   0.00000   0.00000   0.00000
  16        3PX        -0.03226   0.00000   0.00000   0.23342  -0.00000
  17        3PY         0.00000  -0.00000   0.23342   0.00000   0.00000
  18        3PZ         0.00000  -0.07531  -0.00000   0.00000   0.00000
  19        4S          0.00000  -2.36413  -0.00000   0.00000   0.00000
  20        4PX        -0.40660   0.00000   0.00000  -0.54891   0.00000
  21        4PY         0.00000  -0.00000  -0.54891   0.00000   0.00000
  22        4PZ         0.00000   0.78447   0.00000   0.00000   0.00000
  23 3   Cl 1S          0.00000  -0.01537  -0.00368   0.00000   0.00000
  24        2S          0.00000   0.09060   0.02093   0.00000   0.00000
  25        2PX        -0.25373   0.00000   0.00000   0.07950   0.20200
  26        2PY         0.00000  -0.09116   0.04551   0.00000   0.00000
  27        2PZ         0.00000  -0.11247   0.26493   0.00000   0.00000
  28        3S          0.00000  -0.54955  -0.16381   0.00000   0.00000
  29        3PX         0.89342   0.00000   0.00000  -0.29349  -0.73654
  30        3PY         0.00000   0.33400  -0.16478   0.00000   0.00000
  31        3PZ         0.00000   0.41052  -0.95790   0.00000   0.00000
  32        4S          0.00000   1.12010   0.43271   0.00000   0.00000
  33        4PX        -1.05127   0.00000   0.00000   0.41169   0.83532
  34        4PY         0.00000  -0.80835   0.04714   0.00000   0.00000
  35        4PZ         0.00000  -0.62250   1.13388   0.00000   0.00000
  36 4   Cl 1S          0.00277  -0.01537   0.00184  -0.00319   0.00000
  37        2S         -0.01432   0.09060  -0.01046   0.01812  -0.00000
  38        2PX         0.01458  -0.07895   0.01472   0.05401  -0.10100
  39        2PY        -0.15491   0.04558   0.07100   0.01472  -0.17494
  40        2PZ         0.05703  -0.11247  -0.13247   0.22944  -0.00000
  41        3S          0.15322  -0.54955   0.08190  -0.14186   0.00000
  42        3PX        -0.04113   0.28926  -0.05573  -0.19696   0.36827
  43        3PY         0.53956  -0.16700  -0.26131  -0.05573   0.63786
  44        3PZ        -0.19636   0.41052   0.47895  -0.82957   0.00000
  45        4S         -0.67906   1.12010  -0.21635   0.37474  -0.00000
  46        4PX         0.20550  -0.70005   0.15785   0.13828  -0.41766
  47        4PY        -0.72560   0.40417   0.32055   0.15785  -0.72340
  48        4PZ         0.03163  -0.62250  -0.56694   0.98197  -0.00000
  49 5   Cl 1S         -0.00277  -0.01537   0.00184   0.00319  -0.00000
  50        2S          0.01432   0.09060  -0.01046  -0.01812   0.00000
  51        2PX         0.01458   0.07895  -0.01472   0.05401  -0.10100
  52        2PY         0.15491   0.04558   0.07100  -0.01472   0.17494
  53        2PZ        -0.05703  -0.11247  -0.13247  -0.22944   0.00000
  54        3S         -0.15322  -0.54955   0.08190   0.14186  -0.00000
  55        3PX        -0.04113  -0.28926   0.05573  -0.19696   0.36827
  56        3PY        -0.53956  -0.16700  -0.26131   0.05573  -0.63786
  57        3PZ         0.19636   0.41052   0.47895   0.82957  -0.00000
  58        4S          0.67906   1.12010  -0.21635  -0.37474   0.00000
  59        4PX         0.20550   0.70005  -0.15785   0.13828  -0.41766
  60        4PY         0.72560   0.40417   0.32055  -0.15785   0.72340
  61        4PZ        -0.03163  -0.62250  -0.56694  -0.98197   0.00000
  62 6   H  1S          0.00000  -0.02445  -0.10978   0.00000   0.00000
  63        2S          0.00000   0.26849  -0.16059   0.00000   0.00000
  64 7   H  1S         -0.00512  -0.02445   0.05489   0.09507  -0.00000
  65        2S          0.16785   0.26849   0.08030   0.13908   0.00000
  66 8   H  1S          0.00512  -0.02445   0.05489  -0.09507   0.00000
  67        2S         -0.16785   0.26849   0.08030  -0.13908  -0.00000
                          61        62        63        64        65
                        (A1)--V   (E)--V    (E)--V    (A1)--V   (E)--V
     Eigenvalues --     0.99111   1.07008   1.07008   1.13224   1.25517
   1 1   B  1S         -0.01363   0.00000   0.00000   0.03364   0.00000
   2        2S          0.12957   0.00000   0.00000   0.27563   0.00000
   3        2PX         0.00000   0.00000  -0.23341   0.00000   0.04446
   4        2PY         0.00000  -0.23341   0.00000   0.00000   0.00000
   5        2PZ        -0.16557  -0.00000   0.00000  -0.21314   0.00000
   6        3S          0.30661  -0.00000   0.00000  -1.25592   0.00000
   7        3PX         0.00000   0.00000  -0.61306   0.00000  -0.61340
   8        3PY        -0.00000  -0.61306   0.00000   0.00000   0.00000
   9        3PZ        -0.66111  -0.00000   0.00000   0.32277   0.00000
  10 2   P  1S         -0.03498  -0.00000   0.00000  -0.03050   0.00000
  11        2S          0.05138   0.00000   0.00000   0.10373   0.00000
  12        2PX         0.00000   0.00000   0.02806   0.00000  -0.18251
  13        2PY         0.00000   0.02806   0.00000   0.00000   0.00000
  14        2PZ        -0.09541   0.00000   0.00000   0.10694   0.00000
  15        3S         -1.68490  -0.00000   0.00000  -0.89028   0.00000
  16        3PX         0.00000   0.00000  -0.03088   0.00000   0.59580
  17        3PY        -0.00000  -0.03088   0.00000  -0.00000   0.00000
  18        3PZ         0.47475  -0.00000   0.00000  -0.33682   0.00000
  19        4S          3.33747   0.00000   0.00000   2.59813   0.00000
  20        4PX         0.00000   0.00000  -0.05708   0.00000  -1.11041
  21        4PY         0.00000  -0.05708   0.00000   0.00000   0.00000
  22        4PZ        -0.84865   0.00000   0.00000   0.53328   0.00000
  23 3   Cl 1S          0.01836  -0.03664   0.00000  -0.00436   0.00000
  24        2S         -0.10984   0.22099   0.00000   0.02463   0.00000
  25        2PX         0.00000   0.00000  -0.06631   0.00000  -0.01885
  26        2PY         0.04841  -0.19881   0.00000   0.00459   0.00000
  27        2PZ        -0.12228   0.03934   0.00000   0.01145   0.00000
  28        3S          0.66964  -1.28451   0.00000  -0.19306   0.00000
  29        3PX         0.00000   0.00000   0.25111   0.00000   0.06418
  30        3PY        -0.20243   0.78413   0.00000  -0.01351   0.00000
  31        3PZ         0.46550  -0.15789   0.00000  -0.03581   0.00000
  32        4S         -0.99595   1.77593   0.00000   0.49744   0.00000
  33        4PX         0.00000   0.00000  -0.25745   0.00000   0.02710
  34        4PY         0.50322  -1.31699   0.00000  -0.21949   0.00000
  35        4PZ        -0.62958   0.32934   0.00000   0.04598   0.00000
  36 4   Cl 1S          0.01836   0.01832  -0.03173  -0.00436  -0.01256
  37        2S         -0.10984  -0.11049   0.19138   0.02463   0.07476
  38        2PX         0.04193   0.05737  -0.16569   0.00397  -0.03570
  39        2PY        -0.02421  -0.09944   0.05737  -0.00229   0.00973
  40        2PZ        -0.12228  -0.01967   0.03407   0.01145   0.02282
  41        3S          0.66964   0.64226  -1.11242  -0.19306  -0.49873
  42        3PX        -0.17531  -0.23081   0.65088  -0.01170   0.14667
  43        3PY         0.10121   0.38436  -0.23081   0.00676  -0.04763
  44        3PZ         0.46550   0.07895  -0.13674  -0.03581  -0.10211
  45        4S         -0.99595  -0.88797   1.53800   0.49744   0.86726
  46        4PX         0.43580   0.45880  -1.05211  -0.19009  -0.34503
  47        4PY        -0.25161  -0.52233   0.45880   0.10975   0.21485
  48        4PZ        -0.62958  -0.16467   0.28521   0.04598   0.29097
  49 5   Cl 1S          0.01836   0.01832   0.03173  -0.00436   0.01256
  50        2S         -0.10984  -0.11049  -0.19138   0.02463  -0.07476
  51        2PX        -0.04193  -0.05737  -0.16569  -0.00397  -0.03570
  52        2PY        -0.02421  -0.09944  -0.05737  -0.00229  -0.00973
  53        2PZ        -0.12228  -0.01967  -0.03407   0.01145  -0.02282
  54        3S          0.66964   0.64226   1.11242  -0.19306   0.49873
[...]
      7        1          -0.000025990    0.000004934   -0.000018342
      8        1           0.000007408   -0.000029403   -0.000010809
 -------------------------------------------------------------------
 Cartesian Forces:  Max     0.000052498 RMS     0.000020892
 FormGI is forming the generalized inverse of G from B-inverse, IUseBI=4.

 GradGradGradGradGradGradGradGradGradGradGradGradGradGradGradGradGradGrad
 Berny optimization.
 Internal  Forces:  Max     0.000033705 RMS     0.000019880
 Search for a local minimum.
 Step number   1 out of a maximum of    2
 All quantities printed in internal units (Hartrees-Bohrs-Radians)
 Second derivative matrix not updated -- analytic derivatives used.
 ITU=  0
     Eigenvalues ---    0.00308   0.03338   0.03338   0.05584   0.05584
     Eigenvalues ---    0.05900   0.10266   0.10266   0.11286   0.13955
     Eigenvalues ---    0.13955   0.20738   0.23580   0.23580   0.24521
     Eigenvalues ---    0.25089   0.25089   0.31685
 Angle between quadratic step and forces=  24.43 degrees.
 Linear search not attempted -- first point.
 Iteration  1 RMS(Cart)=  0.00021368 RMS(Int)=  0.00000004
 Iteration  2 RMS(Cart)=  0.00000004 RMS(Int)=  0.00000002
 ClnCor:  largest displacement from symmetrization is 4.68D-11 for atom     8.
 Variable       Old X    -DE/DX   Delta X   Delta X   Delta X     New X
                                 (Linear)    (Quad)   (Total)
    R1        3.89506   0.00001   0.00000  -0.00023  -0.00023   3.89483
    R2        3.53930   0.00003   0.00000   0.00021   0.00021   3.53951
    R3        3.53930   0.00003   0.00000   0.00021   0.00021   3.53951
    R4        3.53930   0.00003   0.00000   0.00021   0.00021   3.53951
    R5        2.64025   0.00002   0.00000   0.00005   0.00005   2.64030
    R6        2.64025   0.00002   0.00000   0.00005   0.00005   2.64030
    R7        2.64025   0.00002   0.00000   0.00005   0.00005   2.64030
    A1        1.82605   0.00001   0.00000   0.00007   0.00007   1.82612
    A2        1.82605   0.00001   0.00000   0.00007   0.00007   1.82612
    A3        1.82605   0.00001   0.00000   0.00007   0.00007   1.82612
    A4        1.98709  -0.00001   0.00000  -0.00006  -0.00006   1.98703
    A5        1.98709  -0.00001   0.00000  -0.00006  -0.00006   1.98703
    A6        1.98709  -0.00001   0.00000  -0.00006  -0.00006   1.98703
    A7        1.98137  -0.00003   0.00000  -0.00028  -0.00028   1.98109
    A8        1.98137  -0.00003   0.00000  -0.00028  -0.00028   1.98109
    A9        1.98137  -0.00003   0.00000  -0.00028  -0.00028   1.98109
   A10        1.83490   0.00003   0.00000   0.00031   0.00031   1.83521
   A11        1.83490   0.00003   0.00000   0.00031   0.00031   1.83521
   A12        1.83490   0.00003   0.00000   0.00031   0.00031   1.83521
    D1        3.14159   0.00000   0.00000   0.00000   0.00000   3.14159
    D2       -1.04720   0.00000   0.00000   0.00000   0.00000  -1.04720
    D3        1.04720   0.00000   0.00000  -0.00000   0.00000   1.04720
    D4       -1.04720   0.00000   0.00000  -0.00000  -0.00000  -1.04720
    D5        1.04720   0.00000   0.00000  -0.00000   0.00000   1.04720
    D6        3.14159   0.00000   0.00000  -0.00000   0.00000   3.14159
    D7        1.04720  -0.00000   0.00000   0.00000   0.00000   1.04720
    D8        3.14159  -0.00000   0.00000   0.00000   0.00000   3.14159
    D9       -1.04720  -0.00000   0.00000   0.00000   0.00000  -1.04720
         Item               Value     Threshold  Converged?
 Maximum Force            0.000034     0.000450     YES
 RMS     Force            0.000020     0.000300     YES
 Maximum Displacement     0.000462     0.001800     YES
 RMS     Displacement     0.000214     0.001200     YES
 Predicted change in Energy=-4.131822D-08
 Optimization completed.
    -- Stationary point found.
                           ----------------------------
                           !   Optimized Parameters   !
                           ! (Angstroms and Degrees)  !
 --------------------------                            --------------------------
 ! Name  Definition              Value          Derivative Info.                !
 --------------------------------------------------------------------------------
 ! R1    R(1,2)                  2.0612         -DE/DX =    0.0                 !
 ! R2    R(1,3)                  1.8729         -DE/DX =    0.0                 !
 ! R3    R(1,4)                  1.8729         -DE/DX =    0.0                 !
 ! R4    R(1,5)                  1.8729         -DE/DX =    0.0                 !
 ! R5    R(2,6)                  1.3972         -DE/DX =    0.0                 !
 ! R6    R(2,7)                  1.3972         -DE/DX =    0.0                 !
 ! R7    R(2,8)                  1.3972         -DE/DX =    0.0                 !
 ! A1    A(2,1,3)              104.6251         -DE/DX =    0.0                 !
 ! A2    A(2,1,4)              104.6251         -DE/DX =    0.0                 !
 ! A3    A(2,1,5)              104.6251         -DE/DX =    0.0                 !
 ! A4    A(3,1,4)              113.8517         -DE/DX =    0.0                 !
 ! A5    A(3,1,5)              113.8517         -DE/DX =    0.0                 !
 ! A6    A(4,1,5)              113.8517         -DE/DX =    0.0                 !
 ! A7    A(1,2,6)              113.5239         -DE/DX =    0.0                 !
 ! A8    A(1,2,7)              113.5239         -DE/DX =    0.0                 !
 ! A9    A(1,2,8)              113.5239         -DE/DX =    0.0                 !
 ! A10   A(6,2,7)              105.1318         -DE/DX =    0.0                 !
 ! A11   A(6,2,8)              105.1318         -DE/DX =    0.0                 !
 ! A12   A(7,2,8)              105.1318         -DE/DX =    0.0                 !
 ! D1    D(3,1,2,6)            180.0            -DE/DX =    0.0                 !
 ! D2    D(3,1,2,7)            -60.0            -DE/DX =    0.0                 !
 ! D3    D(3,1,2,8)             60.0            -DE/DX =    0.0                 !
 ! D4    D(4,1,2,6)            -60.0            -DE/DX =    0.0                 !
 ! D5    D(4,1,2,7)             60.0            -DE/DX =    0.0                 !
 ! D6    D(4,1,2,8)            180.0            -DE/DX =    0.0                 !
 ! D7    D(5,1,2,6)             60.0            -DE/DX =    0.0                 !
 ! D8    D(5,1,2,7)            180.0            -DE/DX =    0.0                 !
 ! D9    D(5,1,2,8)            -60.0            -DE/DX =    0.0                 !
 --------------------------------------------------------------------------------
 GradGradGradGradGradGradGradGradGradGradGradGradGradGradGradGradGradGrad


 ----------------------------------------------------------------------

 Electric dipole moment (input orientation):
 (Debye = 10**-18 statcoulomb cm , SI units = C m)
                  (au)            (Debye)         (10**-30 SI)
   Tot        0.302160D+01      0.768014D+01      0.256182D+02
   x         -0.157990D+00     -0.401571D+00     -0.133950D+01
   y          0.499217D+00      0.126888D+01      0.423254D+01
   z          0.297589D+01      0.756395D+01      0.252306D+02

 Dipole polarizability, Alpha (input orientation).
 (esu units = cm**3 , SI units = C**2 m**2 J**-1)
 Alpha(0;0):
               (au)            (10**-24 esu)      (10**-40 SI)
   iso        0.567232D+02      0.840552D+01      0.935240D+01
   aniso      0.502433D+01      0.744528D+00      0.828399D+00
   xx         0.583843D+02      0.865166D+01      0.962627D+01
   yx         0.434033D-01      0.643171D-02      0.715624D-02
   yy         0.582609D+02      0.863337D+01      0.960592D+01
   zx         0.258732D+00      0.383401D-01      0.426591D-01
   zy        -0.817541D+00     -0.121147D+00     -0.134794D+00
   zz         0.535246D+02      0.793152D+01      0.882501D+01

 First dipole hyperpolarizability, Beta (input orientation).
 ||, _|_  parallel and perpendicular components, (z) with respect to z axis,
 vector components x,y,z.  Values do not include the 1/n! factor of 1/2.
 (esu units = statvolt**-1 cm**4 , SI units = C**3 m**3 J**-2)
 Beta(0;0,0):
               (au)            (10**-30 esu)      (10**-50 SI)
   || (z)     0.180273D+03      0.155741D+01      0.578019D+00
   _|_(z)     0.600909D+02      0.519138D+00      0.192673D+00
   x         -0.478534D+02     -0.413416D+00     -0.153435D+00
   y          0.151207D+03      0.130631D+01      0.484826D+00
   z          0.901363D+03      0.778707D+01      0.289010D+01
   ||         0.183042D+03      0.158134D+01      0.586899D+00
   xxx       -0.522921D+02     -0.451763D+00     -0.167667D+00
   xxy        0.583144D+02      0.503791D+00      0.186977D+00
   yxy        0.359992D+02      0.311005D+00      0.115426D+00
   yyy       -0.564955D+01     -0.488077D-01     -0.181145D-01
   xxz        0.664020D+02      0.573661D+00      0.212909D+00
   yxz       -0.357784D+01     -0.309098D-01     -0.114719D-01
   yyz        0.836244D+02      0.722449D+00      0.268130D+00
   zxz        0.341728D+00      0.295227D-02      0.109570D-02
   zyz       -0.226236D+01     -0.195451D-01     -0.725395D-02
   zzz        0.150428D+03      0.129958D+01      0.482326D+00

 ----------------------------------------------------------------------

 Dipole orientation:
     5         -3.81338772          4.32669778          2.71760305
    15         -3.81338772          4.32669778          6.61265881
    17         -6.28277079          1.95390247          1.82395206
    17         -4.63359720          7.65164390          1.82395206
    17         -0.52379517          3.37454697          1.82395206
     1         -2.06780307          6.00400541          7.66646693
     1         -6.13877106          4.99976462          7.66646693
     1         -3.23358903          1.97632332          7.66646693

 Electric dipole moment (dipole orientation):
 (Debye = 10**-18 statcoulomb cm , SI units = C m)
                  (au)            (Debye)         (10**-30 SI)
   Tot        0.302160D+01      0.768014D+01      0.256182D+02
   x          0.000000D+00      0.000000D+00      0.000000D+00
   y          0.000000D+00      0.000000D+00      0.000000D+00
   z          0.302160D+01      0.768014D+01      0.256182D+02

 Dipole polarizability, Alpha (dipole orientation).
 (esu units = cm**3 , SI units = C**2 m**2 J**-1)
 Alpha(0;0):
               (au)            (10**-24 esu)      (10**-40 SI)
   iso        0.567232D+02      0.840552D+01      0.935240D+01
   aniso      0.502433D+01      0.744528D+00      0.828399D+00
   xx         0.583980D+02      0.865369D+01      0.962853D+01
   yx         0.000000D+00      0.000000D+00      0.000000D+00
   yy         0.583980D+02      0.865369D+01      0.962853D+01
   zx         0.000000D+00      0.000000D+00      0.000000D+00
   zy         0.000000D+00      0.000000D+00      0.000000D+00
   zz         0.533737D+02      0.790917D+01      0.880013D+01

 First dipole hyperpolarizability, Beta (dipole orientation).
 ||, _|_  parallel and perpendicular components, (z) with respect to z axis,
 vector components x,y,z.  Values do not include the 1/n! factor of 1/2.
 (esu units = statvolt**-1 cm**4 , SI units = C**3 m**3 J**-2)
 Beta(0;0,0):
               (au)            (10**-30 esu)      (10**-50 SI)
   || (z)     0.183042D+03      0.158134D+01      0.586899D+00
   _|_(z)     0.610140D+02      0.527113D+00      0.195633D+00
   x          0.000000D+00      0.000000D+00      0.000000D+00
   y          0.000000D+00      0.000000D+00      0.000000D+00
   z          0.915210D+03      0.790670D+01      0.293449D+01
   ||         0.183042D+03      0.158134D+01      0.586899D+00
   xxx       -0.409082D+02     -0.353415D+00     -0.131166D+00
   xxy        0.461217D+02      0.398456D+00      0.147883D+00
   yxy        0.409082D+02      0.353415D+00      0.131166D+00
   yyy       -0.461217D+02     -0.398456D+00     -0.147883D+00
   xxz        0.775682D+02      0.670129D+00      0.248712D+00
   yxz        0.000000D+00      0.000000D+00      0.000000D+00
   yyz        0.775682D+02      0.670129D+00      0.248712D+00
   zxz        0.000000D+00      0.000000D+00      0.000000D+00
   zyz        0.000000D+00      0.000000D+00      0.000000D+00
   zzz        0.149934D+03      0.129531D+01      0.480741D+00

 ----------------------------------------------------------------------
 1\1\GINC-IISERK51\Freq\RHF\3-21G\B1Cl3H3P1\GAUSSIAN\17-Jun-2025\0\\#N 
 Geom=AllCheck Guess=TCheck SCRF=Check GenChk RHF/3-21G Freq\\Title Car
 d Required\\0,1\B,-2.0804069456,2.486916584,0.9325458743\P,-2.18817931
 01,2.8274559709,2.9625358642\Cl,-3.3660866705,1.164737139,0.6059257589
 \Cl,-2.4814611283,4.1421857468,0.1534110461\Cl,-0.3194937042,1.9194348
 213,0.6410659526\H,-1.2910228264,3.7989958368,3.4134039701\H,-3.444631
 9542,3.2655068426,3.3885636837\H,-1.9163566546,1.6942642333,3.73328254
 49\\Version=EM64L-G16RevB.01\State=1-A1\HF=-1737.2499483\RMSD=1.884e-0
 9\RMSF=2.089e-05\ZeroPoint=0.0363647\Thermal=0.0436181\Dipole=-0.15799
 ,0.4992173,2.9758854\DipoleDeriv=1.5065116,-0.00164,-0.0097763,-0.0016
 4,1.5111748,0.0308915,-0.0097764,0.0308915,1.6901397,0.5575649,0.00239
 47,0.0142751,0.0023947,0.550756,-0.0451065,0.0142751,-0.0451064,0.2894
 386,-0.6629046,-0.317248,-0.1404736,-0.3028077,-0.6978923,-0.1592695,-
 0.0746543,-0.0952501,-0.4716041,-0.3964288,0.1165045,-0.074053,0.11546
 39,-0.848925,0.3091197,-0.0517052,0.2189051,-0.5870472,-0.9330195,0.19
 65639,0.1896118,0.1831642,-0.4336518,-0.0711241,0.1014446,-0.0449289,-
 0.4657297,-0.021193,0.0373729,0.0241365,0.0224689,-0.0317717,0.00249,-
 0.0437966,-0.0635854,-0.1498294,0.0001382,-0.019077,-0.0193504,-0.0052
 47,-0.0539301,-0.0086631,0.0716482,-0.0356996,-0.1490023,-0.0506689,-0
 .0148709,0.0156301,-0.013797,0.00424,-0.0583379,-0.0074354,0.0347739,-
 0.1563653\Polar=58.3842818,0.0434033,58.260872,0.2587316,-0.8175408,53
 .524574\PolarDeriv=-1.3393919,1.5604379,1.0099987,1.9063751,-0.0373918
 ,0.4007481,1.3606885,0.9467833,-0.2887743,-0.0373918,2.1980794,-1.2973
 855,0.71565,-0.0373912,1.0073542,0.3375327,-1.0976359,-3.0670562,2.005
 7068,-2.1230136,-1.4021294,-1.4217394,0.0803585,-0.3401852,-2.4728735,
 -1.5128525,0.518451,0.0803587,-1.9318278,1.122158,-3.5072937,0.080358,
 -4.0173819,-0.4509073,1.4720185,2.5634582,-9.4848596,-5.5682314,-1.001
 1275,-2.3474808,-0.4603192,-0.4579299,-0.9878857,-5.3012129,-10.308214
 2,-0.2731886,-2.2778932,-0.1674305,-0.646027,-0.345205,-0.390432,-3.93
 03217,-3.9343963,-2.6960589,-2.6351953,5.5625329,-0.4187516,-3.5776715
 ,0.2728884,-0.3255693,0.0610321,-1.7464654,12.6804301,0.2595617,-4.622
 2598,1.255062,-0.2858411,0.3342853,-1.5597683,-1.364211,5.602027,-5.75
 63454,14.4002428,-2.866897,0.2759117,-2.4641968,0.2440452,0.431234,-0.
 8287167,6.2572222,-4.2436085,0.0702413,-1.8691223,0.0621873,-0.7987795
 ,0.0675342,-0.1603734,5.2957785,-1.6348372,-2.4728826,4.9922701,3.3283
 493,2.0131038,2.3400837,1.0516666,1.6268684,1.916733,3.210655,6.291062
 9,1.1837037,2.8823745,1.5196305,1.308634,0.9555009,1.9920075,3.4473482
 ,3.4651462,2.7672134,-9.0433935,2.2779484,-1.1927292,3.3454801,-0.7654
 182,-2.0678961,1.5994337,-2.9266357,2.3913042,-0.8890534,1.7802771,0.5
 503876,2.262187,-0.7938397,1.0258961,-4.6109764,1.4218933,2.5382875,1.
 1046204,-2.1711265,0.7157242,2.2191475,-0.3858301,0.7327295,-0.6484112
 ,1.0725063,-7.040653,-0.394232,3.8403703,-3.0446089,0.9514669,-0.26124
 29,2.102695,1.2757568,-5.2942144,6.1233852\HyperPolar=-52.2920768,58.3
 143873,35.9992009,-5.6495486,66.4019831,-3.5778427,83.6243728,0.341728
 4,-2.2623631,150.4279374\Quadrupole=-3.8054329,-3.5227016,7.3281345,-0
 .0994368,-0.5927529,1.872982\PG=C03V [C3(B1P1),3SGV(Cl1H1)]\NImag=0\\0
 .18997891,0.00052064,0.18849857,0.00310356,-0.00980663,0.13168534,-0.0
 1520997,0.00031720,0.00189086,0.38683923,0.00031720,-0.01611188,-0.005
 97475,0.00083750,0.38445793,0.00189086,-0.00597475,-0.05072571,0.00499
 246,-0.01577520,0.29306675,-0.05796467,-0.03897222,-0.00996734,-0.0083
 8097,-0.00914344,-0.00567564,0.08934243,-0.04008143,-0.06164555,-0.011
 46438,-0.01123932,-0.01288358,-0.00770737,0.06537597,0.09589426,-0.015
 02315,-0.01638193,-0.02821094,-0.01522875,-0.01699924,-0.01022881,0.02
 258181,0.02317344,0.03273337,-0.02376555,0.01494123,-0.00699265,-0.000
 86891,0.00255804,-0.00220500,0.00159220,-0.01148481,0.00393951,0.03311
 124,0.01502115,-0.08214453,0.02924168,0.00270907,-0.01165179,0.0097724
 9,-0.00551889,-0.02498065,0.00855205,-0.02441775,0.12845468,-0.0087092
 6,0.03617137,-0.04191107,-0.00544860,0.02286638,-0.01897267,0.00047667
 ,-0.00005131,0.00413054,0.01382674,-0.05717510,0.05640414,-0.09213688,
 0.02335040,0.01290295,-0.01842599,0.00668515,0.00847527,-0.02624978,-0
 .00351351,0.00295812,-0.01104082,0.01265994,-0.00065921,0.14603613,0.0
 2437969,-0.02814190,-0.00495784,0.00863000,-0.00342414,-0.00394404,-0.
 01179461,0.00270563,0.00168885,0.01879269,-0.01220190,0.00005264,-0.03
 963813,0.04038740,0.01967537,-0.00696998,-0.02754238,0.02127198,-0.007
 74606,-0.00964325,-0.00413175,0.00002807,0.00428623,-0.00770504,0.0059
 1325,0.00398481,-0.02853935,0.00913653,0.03154654,0.00021344,0.0009034
 6,0.00011030,-0.11288300,-0.08607826,-0.03973319,0.00084824,0.00025386
 ,0.00044791,-0.00005092,0.00008284,0.00016397,0.00072117,0.00001561,-0
 .00032383,0.11858137,-0.00136976,-0.00165064,0.00169652,-0.08767632,-0
 .12814277,-0.04337954,-0.00025336,0.00026189,-0.00082021,0.00024047,0.
 00088663,-0.00024726,0.00023300,0.00014731,0.00043162,0.09533242,0.133
 42274,-0.01025113,-0.00838157,0.00655327,-0.04701723,-0.05046439,-0.05
 491961,-0.00186403,-0.00306892,-0.00503602,0.00051643,0.00110714,0.001
 05739,0.00103308,0.00073984,0.00102462,0.04404445,0.04646420,0.0470226
 2,-0.00064472,-0.00017273,-0.00104696,-0.19049903,0.05470631,0.0527373
 6,0.00072440,0.00027127,0.00007981,0.00030905,-0.00041514,-0.00004808,
 0.00065128,0.00002780,0.00011058,-0.01113716,0.00483838,0.00459970,0.2
 0309435,0.00193668,-0.00104550,0.00145043,0.05618921,-0.05286679,-0.01
 859172,0.00005331,0.00016593,0.00052953,-0.00054518,0.00054656,-0.0003
 0988,0.00049847,0.00040422,-0.00089453,-0.01403985,0.00609540,0.005329
 65,-0.06002829,0.05126517,0.01283252,-0.00267328,0.00680629,0.06249457
 ,-0.02149067,-0.05257957,-0.00126524,0.00017345,0.00100276,-0.00099278
 ,0.00072651,0.00103749,0.00320750,-0.00181465,-0.00498139,-0.00689562,
 0.00269979,0.00101290,-0.05757331,0.01925815,0.04466720,-0.00047056,-0
 .00088797,-0.00000072,-0.04057133,0.03011750,-0.02048212,0.00008816,0.
 00041798,0.00024474,0.00071372,-0.00012124,0.00039777,0.00044489,-0.00
 041304,-0.00035796,0.00370686,-0.01134483,0.00893873,-0.00249818,0.015
 93565,-0.01180763,0.03858644,-0.00072417,0.00224142,-0.00018502,0.0302
 3265,-0.15937696,0.08560012,0.00025325,0.00048206,0.00025751,-0.000084
 69,0.00109100,-0.00130685,-0.00027533,0.00012337,0.00010110,0.00352992
 ,-0.01102056,0.00827404,0.00077241,-0.00456500,0.00312070,-0.03370404,
 0.17102465,-0.00351877,0.01401678,0.00334521,-0.02295529,0.09558392,-0
 .09599711,-0.00015449,-0.00108299,0.00132288,-0.00038721,0.00186198,-0
 .00573062,0.00062165,-0.00090133,0.00132483,0.00218602,-0.00684512,0.0
 0328485,0.00114089,-0.00677163,0.00303433,0.02306719,-0.09586160,0.089
 41563\\0.00000178,-0.00000564,-0.00003360,0.00000279,-0.00000881,-0.00
 005250,0.00002153,0.00002329,0.00001069,0.00000653,-0.00002721,0.00001
 837,-0.00003014,0.00001049,0.00001009,-0.00002107,-0.00001659,0.000017
 80,0.00002599,-0.00000493,0.00001834,-0.00000741,0.00002940,0.00001081
 \\\@


 I WANT TO KNOW HOW GOD CREATED THE WORLD.  I AM NOT INTERESTED IN
 THIS OR THAT PHENOMENON, IN THE SPECTRUM OF THIS OR THAT ELEMENT.
 I WANT TO KNOW HIS THOUGHTS, THE REST ARE DETAILS.
     -- ALBERT EINSTEIN
 Job cpu time:       0 days  0 hours  0 minutes  1.8 seconds.
 Elapsed time:       0 days  0 hours  0 minutes  1.8 seconds.
 File lengths (MBytes):  RWF=      7 Int=      0 D2E=      0 Chk=      2 Scr=      1
 Normal termination of Gaussian 16 at Tue Jun 17 15:50:34 2025.
