 Entering Gaussian System, Link 0=g16
 Input=/home/gaussian/Documents/Summer_Internship/Acid_Base_adduct/Adduct/PH3-BCl3/PH3_BCl3_adduct_sp.com
 Output=/home/gaussian/Documents/Summer_Internship/Acid_Base_adduct/Adduct/PH3-BCl3/PH3_BCl3_adduct_sp.log
 Initial command:
 /usr/local/g16/l1.exe "/home/gaussian/tmp/Gau-92762.inp" -scrdir="/home/gaussian/tmp/"
 Entering Link 1 = /usr/local/g16/l1.exe PID=     92765.
  
 Copyright (c) 1988-2017, Gaussian, Inc.  All Rights Reserved.
  
 This is part of the Gaussian(R) 16 program.  It is based on
 the Gaussian(R) 09 system (copyright 2009, Gaussian, Inc.),
 the Gaussian(R) 03 system (copyright 2003, Gaussian, Inc.),
 the Gaussian(R) 98 system (copyright 1998, Gaussian, Inc.),
 the Gaussian(R) 94 system (copyright 1995, Gaussian, Inc.),
 the Gaussian 92(TM) system (copyright 1992, Gaussian, Inc.),
 the Gaussian 90(TM) system (copyright 1990, Gaussian, Inc.),
 the Gaussian 88(TM) system (copyright 1988, Gaussian, Inc.),
 the Gaussian 86(TM) system (copyright 1986, Carnegie Mellon
 University), and the Gaussian 82(TM) system (copyright 1983,
 Carnegie Mellon University). Gaussian is a federally registered
 trademark of Gaussian, Inc.
  
 This software contains proprietary and confidential information,
 including trade secrets, belonging to Gaussian, Inc.
  
 This software is provided under written license and may be
 used, copied, transmitted, or stored only in accord with that
 written license.
  
 The following legend is applicable only to US Government
 contracts under FAR:
  
                    RESTRICTED RIGHTS LEGEND
  
 Use, reproduction and disclosure by the US Government is
 subject to restrictions as set forth in subparagraphs (a)
 and (c) of the Commercial Computer Software - Restricted
 Rights clause in FAR 52.227-19.
  
 Gaussian, Inc.
 340 Quinnipiac St., Bldg. 40, Wallingford CT 06492
  
  
 ---------------------------------------------------------------
 Warning -- This program may not be used in any manner that
 competes with the business of Gaussian, Inc. or will provide
 assistance to any competitor of Gaussian, Inc.  The licensee
 of this program is prohibited from giving any competitor of
 Gaussian, Inc. access to this program.  By using this program,
 the user acknowledges that Gaussian, Inc. is engaged in the
 business of creating and licensing software in the field of
 computational chemistry and represents and warrants to the
 licensee that it is not a competitor of Gaussian, Inc. and that
 it will not use this program in any manner prohibited above.
 ---------------------------------------------------------------
  

 Cite this work as:
 Gaussian 16, Revision B.01,
 M. J. Frisch, G. W. Trucks, H. B. Schlegel, G. E. Scuseria, 
 M. A. Robb, J. R. Cheeseman, G. Scalmani, V. Barone, 
 G. A. Petersson, H. Nakatsuji, X. Li, M. Caricato, A. V. Marenich, 
 J. Bloino, B. G. Janesko, R. Gomperts, B. Mennucci, H. P. Hratchian, 
 J. V. Ortiz, A. F. Izmaylov, J. L. Sonnenberg, D. Williams-Young, 
 F. Ding, F. Lipparini, F. Egidi, J. Goings, B. Peng, A. Petrone, 
 T. Henderson, D. Ranasinghe, V. G. Zakrzewski, J. Gao, N. Rega, 
 G. Zheng, W. Liang, M. Hada, M. Ehara, K. Toyota, R. Fukuda, 
 J. Hasegawa, M. Ishida, T. Nakajima, Y. Honda, O. Kitao, H. Nakai, 
 T. Vreven, K. Throssell, J. A. Montgomery, Jr., J. E. Peralta, 
 F. Ogliaro, M. J. Bearpark, J. J. Heyd, E. N. Brothers, K. N. Kudin, 
 V. N. Staroverov, T. A. Keith, R. Kobayashi, J. Normand, 
 K. Raghavachari, A. P. Rendell, J. C. Burant, S. S. Iyengar, 
 J. Tomasi, M. Cossi, J. M. Millam, M. Klene, C. Adamo, R. Cammi, 
 J. W. Ochterski, R. L. Martin, K. Morokuma, O. Farkas, 
 J. B. Foresman, and D. J. Fox, Gaussian, Inc., Wallingford CT, 2016.
 
 ******************************************
 Gaussian 16:  EM64L-G16RevB.01 20-Dec-2017
                17-Jun-2025 
 ******************************************
 %chk=PH3_BCl3_adduct_sp.chk
 -------------------------------------
 # hf/3-21g pop=full geom=connectivity
 -------------------------------------
 1/38=1,57=2,172=1/1;
 2/12=2,17=6,18=5,40=1/2;
 3/5=5,11=9,25=1,30=1/1,2,3;
 4//1;
 5/5=2,38=5/2;
 6/7=3,28=1/1;
 99/5=1,9=1/99;
 -------------------
 Title Card Required
 -------------------
 Symbolic Z-matrix:
 Charge =  0 Multiplicity = 1
 B                     0.        0.       -0.19806 
 P                     0.        0.        1.86312 
 Cl                    0.        1.81223  -0.67096 
 Cl                    1.56944  -0.90612  -0.67096 
 Cl                   -1.56944  -0.90612  -0.67096 
 H                     0.       -1.28105   2.42077 
 H                     1.10942   0.64053   2.42077 
 H                    -1.10942   0.64053   2.42077 
 
                          Input orientation:                          
 ---------------------------------------------------------------------
 Center     Atomic      Atomic             Coordinates (Angstroms)
 Number     Number       Type             X           Y           Z
 ---------------------------------------------------------------------
      1          5           0        0.000000    0.000000   -0.198057
      2         15           0        0.000000    0.000000    1.863118
      3         17           0        0.000000    1.812230   -0.670957
      4         17           0        1.569437   -0.906115   -0.670957
      5         17           0       -1.569437   -0.906115   -0.670957
      6          1           0        0.000000   -1.281049    2.420769
      7          1           0        1.109421    0.640525    2.420769
      8          1           0       -1.109421    0.640525    2.420769
 ---------------------------------------------------------------------
                    Distance matrix (angstroms):
                    1          2          3          4          5
     1  B    0.000000
     2  P    2.061175   0.000000
     3  Cl   1.872915   3.115399   0.000000
     4  Cl   1.872915   3.115399   3.138874   0.000000
     5  Cl   1.872915   3.115399   3.138874   3.138874   0.000000
     6  H    2.915362   1.397162   4.373459   3.487474   3.487474
     7  H    2.915362   1.397162   3.487474   3.487475   4.373459
     8  H    2.915362   1.397162   3.487474   4.373459   3.487475
                    6          7          8
     6  H    0.000000
     7  H    2.218842   0.000000
     8  H    2.218842   2.218842   0.000000
 Stoichiometry    BCl3H3P
 Framework group  C3V[C3(BP),3SGV(ClH)]
 Deg. of freedom     5
 Full point group                 C3V     NOp   6
 Largest Abelian subgroup         CS      NOp   2
 Largest concise Abelian subgroup CS      NOp   2
                         Standard orientation:                         
 ---------------------------------------------------------------------
 Center     Atomic      Atomic             Coordinates (Angstroms)
 Number     Number       Type             X           Y           Z
 ---------------------------------------------------------------------
      1          5           0        0.000000   -0.000000   -0.198057
      2         15           0        0.000000   -0.000000    1.863118
      3         17           0        0.000000    1.812230   -0.670957
      4         17           0        1.569437   -0.906115   -0.670957
      5         17           0       -1.569437   -0.906115   -0.670957
      6          1           0        0.000000   -1.281049    2.420769
      7          1           0        1.109421    0.640525    2.420769
      8          1           0       -1.109421    0.640525    2.420769
 ---------------------------------------------------------------------
 Rotational constants (GHZ):           1.4553300           1.4553300           1.4460325
 Standard basis: 3-21G (6D, 7F)
 There are    44 symmetry adapted cartesian basis functions of A'  symmetry.
 There are    23 symmetry adapted cartesian basis functions of A"  symmetry.
 There are    44 symmetry adapted basis functions of A'  symmetry.
 There are    23 symmetry adapted basis functions of A"  symmetry.
    67 basis functions,   132 primitive gaussians,    67 cartesian basis functions
    37 alpha electrons       37 beta electrons
       nuclear repulsion energy       409.5411338662 Hartrees.



 Warning!  P  atom    2 may be hypervalent but has no d functions.



 NAtoms=    8 NActive=    8 NUniq=    4 SFac= 4.00D+00 NAtFMM=   60 NAOKFM=F Big=F
 Integral buffers will be    131072 words long.
 Raffenetti 1 integral format.
 Two-electron integral symmetry is turned on.
 One-electron integrals computed using PRISM.
 NBasis=    67 RedAO= T EigKep=  1.03D-02  NBF=    44    23
 NBsUse=    67 1.00D-06 EigRej= -1.00D+00 NBFU=    44    23
 ExpMin= 1.23D-01 ExpMax= 1.38D+03 ExpMxC= 1.38D+03 IAcc=3 IRadAn=         5 AccDes= 0.00D+00
 Harris functional with IExCor=  205 and IRadAn=       5 diagonalized for initial guess.
 HarFok:  IExCor=  205 AccDes= 0.00D+00 IRadAn=         5 IDoV= 1 UseB2=F ITyADJ=14
 ICtDFT=  3500011 ScaDFX=  1.000000  1.000000  1.000000  1.000000
 FoFCou: FMM=F IPFlag=           0 FMFlag=      100000 FMFlg1=           0
         NFxFlg=           0 DoJE=T BraDBF=F KetDBF=T FulRan=T
         wScrn=  0.000000 ICntrl=       500 IOpCl=  0 I1Cent=   200000004 NGrid=           0
         NMat0=    1 NMatS0=      1 NMatT0=    0 NMatD0=    1 NMtDS0=    0 NMtDT0=    0
 Petite list used in FoFCou.
 Initial guess orbital symmetries:
       Occupied  (E) (E) (A1) (A1) (E) (E) (A1) (E) (E) (A1) (A2)
                 (E) (E) (A1) (E) (E) (A1) (A1) (E) (E) (A1) (A1)
                 (E) (E) (A1) (A1) (E) (E) (A1) (E) (E) (E) (E)
                 (E) (E) (A2) (A1)
       Virtual   (E) (E) (A1) (A1) (A1) (E) (E) (E) (E) (A1) (A1)
                 (E) (E) (A1) (E) (E) (A1) (E) (E) (A1) (E) (E)
                 (A2) (A1) (E) (E) (A1) (E) (E) (A1)
 The electronic state of the initial guess is 1-A1.
 Keep R1 ints in memory in symmetry-blocked form, NReq=3916484.
 Requested convergence on RMS density matrix=1.00D-08 within 128 cycles.
 Requested convergence on MAX density matrix=1.00D-06.
 Requested convergence on             energy=1.00D-06.
 No special actions if energy rises.
 SCF Done:  E(RHF) =  -1737.24994834     A.U. after   11 cycles
            NFock= 11  Conv=0.34D-08     -V/T= 2.0007

 **********************************************************************

            Population analysis using the SCF Density.

 **********************************************************************

 Orbital symmetries:
       Occupied  (E) (E) (A1) (A1) (E) (E) (A1) (E) (E) (A1) (E)
                 (E) (A2) (A1) (E) (E) (A1) (A1) (E) (E) (A1) (A1)
                 (E) (E) (A1) (A1) (E) (E) (A1) (E) (E) (E) (E)
                 (E) (E) (A2) (A1)
       Virtual   (E) (E) (A1) (A1) (A1) (E) (E) (E) (E) (A1) (A1)
                 (E) (E) (A1) (E) (E) (A1) (E) (E) (A1) (E) (E)
                 (A2) (A1) (E) (E) (A1) (E) (E) (A1)
 The electronic state is 1-A1.
 Alpha  occ. eigenvalues -- -104.09370-104.09370-104.09344 -79.49254 -10.48858
 Alpha  occ. eigenvalues --  -10.48858 -10.48777  -7.95158  -7.95158  -7.95138
 Alpha  occ. eigenvalues --   -7.94810  -7.94810  -7.94799  -7.94799  -7.94776
 Alpha  occ. eigenvalues --   -7.94776  -7.73197  -7.57087  -5.45575  -5.45575
 Alpha  occ. eigenvalues --   -5.45503  -1.14094  -1.08041  -1.08041  -0.98377
 Alpha  occ. eigenvalues --   -0.69957  -0.64196  -0.64196  -0.57514  -0.55189
 Alpha  occ. eigenvalues --   -0.55189  -0.46606  -0.46606  -0.44290  -0.44290
 Alpha  occ. eigenvalues --   -0.43026  -0.42612
 Alpha virt. eigenvalues --    0.12340   0.12340   0.13356   0.17541   0.21119
 Alpha virt. eigenvalues --    0.24017   0.24017   0.52544   0.52544   0.53207
 Alpha virt. eigenvalues --    0.57556   0.66367   0.66367   0.67870   0.77431
 Alpha virt. eigenvalues --    0.77431   0.78091   0.81485   0.81485   0.82704
 Alpha virt. eigenvalues --    0.90039   0.90039   0.92373   0.99537   1.05545
 Alpha virt. eigenvalues --    1.05545   1.13064   1.24291   1.24291   1.50376
     Molecular Orbital Coefficients:
                           1         2         3         4         5
                        (E)--O    (E)--O    (A1)--O   (A1)--O   (E)--O
     Eigenvalues --  -104.09370-104.09370-104.09344 -79.49254 -10.48858
   1 1   B  1S          0.00000   0.00000   0.00012  -0.00016   0.00000
   2        2S          0.00000   0.00000   0.00144  -0.00087   0.00000
   3        2PX         0.00011   0.00000   0.00000   0.00000  -0.00075
   4        2PY         0.00000   0.00011  -0.00000  -0.00000   0.00000
   5        2PZ         0.00000  -0.00000  -0.00007  -0.00016   0.00000
   6        3S          0.00000  -0.00000  -0.00818   0.00250   0.00000
   7        3PX        -0.00474   0.00000   0.00000   0.00000   0.02794
   8        3PY         0.00000  -0.00474   0.00000   0.00000   0.00000
   9        3PZ         0.00000   0.00000   0.00249  -0.00038   0.00000
  10 2   P  1S          0.00000   0.00000   0.00001   0.98701   0.00000
  11        2S          0.00000   0.00000  -0.00001   0.04874   0.00000
  12        2PX        -0.00008   0.00000   0.00000   0.00000   0.00036
  13        2PY         0.00000  -0.00008   0.00000   0.00000   0.00000
  14        2PZ         0.00000   0.00000   0.00011  -0.00001   0.00000
  15        3S          0.00000   0.00000   0.00143  -0.01620   0.00000
  16        3PX         0.00045   0.00000   0.00000   0.00000  -0.00240
  17        3PY         0.00000   0.00045  -0.00000  -0.00000   0.00000
  18        3PZ         0.00000  -0.00000  -0.00068   0.00048   0.00000
  19        4S          0.00000  -0.00000  -0.00222   0.01112   0.00000
  20        4PX        -0.00083   0.00000   0.00000   0.00000   0.00419
  21        4PY         0.00000  -0.00083   0.00000  -0.00000   0.00000
  22        4PZ         0.00000   0.00000   0.00097   0.00010   0.00000
  23 3   Cl 1S          0.00000   0.80496   0.56921   0.00001   0.00000
  24        2S          0.00000   0.04340   0.03061  -0.00005   0.00000
  25        2PX        -0.00003   0.00000   0.00000   0.00000   0.00009
  26        2PY         0.00000  -0.00021  -0.00008   0.00001   0.00000
  27        2PZ         0.00000   0.00007   0.00004  -0.00003   0.00000
  28        3S          0.00000  -0.01619  -0.01098   0.00079   0.00000
  29        3PX         0.00011   0.00000   0.00000   0.00000  -0.00051
  30        3PY         0.00000   0.00088   0.00026  -0.00009   0.00000
  31        3PZ         0.00000  -0.00028  -0.00014   0.00021   0.00000
  32        4S          0.00000   0.01179   0.00804  -0.00175   0.00000
  33        4PX         0.00045   0.00000   0.00000   0.00000  -0.00287
  34        4PY         0.00000  -0.00323  -0.00218   0.00083   0.00000
  35        4PZ         0.00000   0.00114   0.00041  -0.00075   0.00000
  36 4   Cl 1S          0.69712  -0.40248   0.56921   0.00001  -0.21629
  37        2S          0.03759  -0.02170   0.03061  -0.00005   0.69487
  38        2PX        -0.00017   0.00008  -0.00007   0.00001  -0.00468
  39        2PY         0.00008  -0.00007   0.00004  -0.00001   0.00275
  40        2PZ         0.00006  -0.00004   0.00004  -0.00003   0.00221
  41        3S         -0.01402   0.00809  -0.01098   0.00079   0.10358
  42        3PX         0.00068  -0.00033   0.00023  -0.00008  -0.00474
  43        3PY        -0.00033   0.00030  -0.00013   0.00005   0.00244
  44        3PZ        -0.00024   0.00014  -0.00014   0.00021   0.00180
  45        4S          0.01021  -0.00589   0.00804  -0.00175  -0.05982
  46        4PX        -0.00231   0.00160  -0.00189   0.00072   0.01344
  47        4PY         0.00160  -0.00047   0.00109  -0.00041  -0.00941
  48        4PZ         0.00099  -0.00057   0.00041  -0.00075  -0.00580
  49 5   Cl 1S         -0.69712  -0.40248   0.56921   0.00001   0.21629
  50        2S         -0.03759  -0.02170   0.03061  -0.00005  -0.69487
  51        2PX        -0.00017  -0.00008   0.00007  -0.00001  -0.00468
  52        2PY        -0.00008  -0.00007   0.00004  -0.00001  -0.00275
  53        2PZ        -0.00006  -0.00004   0.00004  -0.00003  -0.00221
  54        3S          0.01402   0.00809  -0.01098   0.00079  -0.10358
  55        3PX         0.00068   0.00033  -0.00023   0.00008  -0.00474
  56        3PY         0.00033   0.00030  -0.00013   0.00005  -0.00244
  57        3PZ         0.00024   0.00014  -0.00014   0.00021  -0.00180
  58        4S         -0.01021  -0.00589   0.00804  -0.00175   0.05982
  59        4PX        -0.00231  -0.00160   0.00189  -0.00072   0.01344
  60        4PY        -0.00160  -0.00047   0.00109  -0.00041   0.00941
  61        4PZ        -0.00099  -0.00057   0.00041  -0.00075   0.00580
  62 6   H  1S          0.00000   0.00016   0.00005   0.00093   0.00000
  63        2S          0.00000  -0.00076   0.00023  -0.00207   0.00000
  64 7   H  1S         -0.00014  -0.00008   0.00005   0.00093   0.00071
  65        2S          0.00066   0.00038   0.00023  -0.00207  -0.00346
  66 8   H  1S          0.00014  -0.00008   0.00005   0.00093  -0.00071
  67        2S         -0.00066   0.00038   0.00023  -0.00207   0.00346
                           6         7         8         9        10
                        (E)--O    (A1)--O   (E)--O    (E)--O    (A1)--O
     Eigenvalues --   -10.48858 -10.48777  -7.95158  -7.95158  -7.95138
   1 1   B  1S          0.00000  -0.00110   0.00000  -0.00000   0.00093
   2        2S          0.00000  -0.00874   0.00000   0.00000  -0.00103
   3        2PX         0.00000   0.00000   0.00127   0.00000   0.00000
   4        2PY        -0.00075  -0.00000   0.00000   0.00127   0.00000
   5        2PZ        -0.00000   0.00036   0.00000   0.00000  -0.00083
   6        3S         -0.00000   0.04949   0.00000   0.00000  -0.01070
   7        3PX         0.00000   0.00000  -0.00966   0.00000   0.00000
   8        3PY         0.02794   0.00000   0.00000  -0.00966  -0.00000
   9        3PZ         0.00000  -0.01426   0.00000  -0.00000   0.00605
  10 2   P  1S          0.00000  -0.00005   0.00000   0.00000  -0.00009
  11        2S          0.00000  -0.00015   0.00000  -0.00000   0.00067
  12        2PX         0.00000   0.00000  -0.00006   0.00000   0.00000
  13        2PY         0.00036   0.00000   0.00000  -0.00006  -0.00000
  14        2PZ         0.00000  -0.00053   0.00000  -0.00000   0.00005
  15        3S          0.00000  -0.00768   0.00000  -0.00000   0.00446
  16        3PX         0.00000   0.00000   0.00066   0.00000   0.00000
  17        3PY        -0.00240  -0.00000   0.00000   0.00066   0.00000
  18        3PZ        -0.00000   0.00381   0.00000   0.00000  -0.00069
  19        4S         -0.00000   0.01137   0.00000   0.00000  -0.01053
  20        4PX         0.00000   0.00000  -0.00311   0.00000   0.00000
  21        4PY         0.00419   0.00000   0.00000  -0.00311  -0.00000
  22        4PZ         0.00000  -0.00518   0.00000  -0.00000   0.00391
  23 3   Cl 1S         -0.24976  -0.17667   0.00000  -0.00265  -0.00179
  24        2S          0.80237   0.56781   0.00000   0.00924   0.00614
  25        2PX         0.00000   0.00000   0.01286   0.00000   0.00000
  26        2PY        -0.00627  -0.00471   0.00000   0.76628   0.54016
  27        2PZ         0.00255   0.00185   0.00000  -0.20963  -0.15526
  28        3S          0.11960   0.08226   0.00000  -0.00695  -0.00204
  29        3PX         0.00000   0.00000   0.00160   0.00000   0.00000
  30        3PY        -0.00615  -0.00247   0.00000   0.06592   0.04524
  31        3PZ         0.00208   0.00111   0.00000  -0.01806  -0.01331
  32        4S         -0.06907  -0.04776   0.00000   0.01391   0.00502
  33        4PX         0.00000   0.00000  -0.00074   0.00000   0.00000
  34        4PY         0.01887   0.01323   0.00000  -0.02739  -0.01617
  35        4PZ        -0.00670  -0.00245   0.00000   0.00776   0.00482
  36 4   Cl 1S          0.12488  -0.17667  -0.00229   0.00132  -0.00179
  37        2S         -0.40118   0.56781   0.00800  -0.00462   0.00614
  38        2PX         0.00275  -0.00407   0.57793  -0.32624   0.46779
  39        2PY        -0.00150   0.00235  -0.32624   0.20121  -0.27008
  40        2PZ        -0.00128   0.00185  -0.18155   0.10482  -0.15526
  41        3S         -0.05980   0.08226  -0.00602   0.00347  -0.00204
  42        3PX         0.00244  -0.00214   0.04984  -0.02785   0.03918
  43        3PY        -0.00192   0.00123  -0.02785   0.01768  -0.02262
  44        3PZ        -0.00104   0.00111  -0.01564   0.00903  -0.01331
  45        4S          0.03454  -0.04776   0.01205  -0.00696   0.00502
  46        4PX        -0.00941   0.01146  -0.02073   0.01154  -0.01401
  47        4PY         0.00257  -0.00662   0.01154  -0.00740   0.00809
  48        4PZ         0.00335  -0.00245   0.00672  -0.00388   0.00482
  49 5   Cl 1S          0.12488  -0.17667   0.00229   0.00132  -0.00179
  50        2S         -0.40118   0.56781  -0.00800  -0.00462   0.00614
  51        2PX        -0.00275   0.00407   0.57793   0.32624  -0.46779
  52        2PY        -0.00150   0.00235   0.32624   0.20121  -0.27008
  53        2PZ        -0.00128   0.00185   0.18155   0.10482  -0.15526
  54        3S         -0.05980   0.08226   0.00602   0.00347  -0.00204
  55        3PX        -0.00244   0.00214   0.04984   0.02785  -0.03918
  56        3PY        -0.00192   0.00123   0.02785   0.01768  -0.02262
  57        3PZ        -0.00104   0.00111   0.01564   0.00903  -0.01331
  58        4S          0.03454  -0.04776  -0.01205  -0.00696   0.00502
  59        4PX         0.00941  -0.01146  -0.02073  -0.01154   0.01401
  60        4PY         0.00257  -0.00662  -0.01154  -0.00740   0.00809
  61        4PZ         0.00335  -0.00245  -0.00672  -0.00388   0.00482
  62 6   H  1S         -0.00082  -0.00027   0.00000   0.00023   0.00014
  63        2S          0.00399  -0.00111   0.00000  -0.00228   0.00124
  64 7   H  1S          0.00041  -0.00027  -0.00020  -0.00012   0.00014
  65        2S         -0.00200  -0.00111   0.00198   0.00114   0.00124
  66 8   H  1S          0.00041  -0.00027   0.00020  -0.00012   0.00014
  67        2S         -0.00200  -0.00111  -0.00198   0.00114   0.00124
                          11        12        13        14        15
                        (E)--O    (E)--O    (A2)--O   (A1)--O   (E)--O
     Eigenvalues --    -7.94810  -7.94810  -7.94799  -7.94799  -7.94776
   1 1   B  1S          0.00000  -0.00000   0.00000   0.00071  -0.00000
   2        2S          0.00000  -0.00000   0.00000   0.00187  -0.00000
   3        2PX         0.00000   0.00000   0.00000   0.00000   0.00000
   4        2PY         0.00000   0.00000   0.00000  -0.00000  -0.00158
   5        2PZ         0.00000   0.00000   0.00000  -0.00167   0.00000
   6        3S          0.00000   0.00000   0.00000  -0.00769   0.00000
   7        3PX         0.00081   0.00000  -0.00000   0.00000   0.00000
   8        3PY         0.00000   0.00081   0.00000   0.00000   0.01080
   9        3PZ         0.00000  -0.00000   0.00000   0.00879  -0.00000
  10 2   P  1S          0.00000  -0.00000   0.00000   0.00013  -0.00000
  11        2S          0.00000   0.00000   0.00000  -0.00074   0.00000
  12        2PX         0.00021   0.00000   0.00000   0.00000   0.00000
  13        2PY         0.00000   0.00021   0.00000   0.00000   0.00002
  14        2PZ         0.00000   0.00000   0.00000  -0.00012   0.00000
  15        3S          0.00000   0.00000   0.00000  -0.00456   0.00000
  16        3PX        -0.00188   0.00000  -0.00000   0.00000   0.00000
  17        3PY         0.00000  -0.00188   0.00000  -0.00000  -0.00004
  18        3PZ         0.00000  -0.00000   0.00000   0.00124  -0.00000
  19        4S          0.00000  -0.00000   0.00000   0.00575  -0.00000
  20        4PX         0.00780   0.00000   0.00000   0.00000   0.00000
  21        4PY         0.00000   0.00780   0.00000   0.00000  -0.00312
  22        4PZ         0.00000   0.00000   0.00000  -0.00202   0.00000
  23 3   Cl 1S          0.00000   0.00028   0.00000   0.00019  -0.00003
  24        2S          0.00000  -0.00095   0.00000  -0.00067   0.00017
  25        2PX         0.11748   0.00000   0.56235   0.00000   0.00000
  26        2PY         0.00000   0.20574   0.00000   0.15549  -0.04347
  27        2PZ         0.00000   0.75924   0.00000   0.54056  -0.11003
  28        3S          0.00000   0.00010   0.00000   0.00012  -0.00044
  29        3PX         0.00987   0.00000   0.04655   0.00000   0.00000
  30        3PY         0.00000   0.01695   0.00000   0.01239  -0.00294
  31        3PZ         0.00000   0.06241   0.00000   0.04415  -0.00881
  32        4S          0.00000  -0.00058   0.00000   0.00205  -0.00384
  33        4PX        -0.00386   0.00000  -0.01590   0.00000   0.00000
  34        4PY         0.00000  -0.00539   0.00000  -0.00517   0.00212
  35        4PZ         0.00000  -0.02041   0.00000  -0.01466   0.00136
  36 4   Cl 1S          0.00024  -0.00014  -0.00000   0.00019   0.00002
  37        2S         -0.00082   0.00047   0.00000  -0.00067  -0.00008
  38        2PX         0.18368  -0.03822  -0.28118   0.13466   0.35949
  39        2PY        -0.03822   0.13955  -0.48701  -0.07774   0.57918
  40        2PZ         0.65752  -0.37962   0.00000   0.54056   0.05501
  41        3S          0.00009  -0.00005  -0.00000   0.00012   0.00022
  42        3PX         0.01518  -0.00307  -0.02327   0.01073   0.02882
  43        3PY        -0.00307   0.01164  -0.04031  -0.00620   0.04698
  44        3PZ         0.05405  -0.03120   0.00000   0.04415   0.00441
  45        4S         -0.00050   0.00029   0.00000   0.00205   0.00192
  46        4PX        -0.00501   0.00066   0.00795  -0.00448  -0.00966
  47        4PY         0.00066  -0.00424   0.01377   0.00258  -0.01461
  48        4PZ        -0.01768   0.01021  -0.00000  -0.01466  -0.00068
  49 5   Cl 1S         -0.00024  -0.00014   0.00000   0.00019   0.00002
  50        2S          0.00082   0.00047  -0.00000  -0.00067  -0.00008
  51        2PX         0.18368   0.03822  -0.28118  -0.13466  -0.35949
  52        2PY         0.03822   0.13955   0.48701  -0.07774   0.57918
  53        2PZ        -0.65752  -0.37962  -0.00000   0.54056   0.05501
  54        3S         -0.00009  -0.00005   0.00000   0.00012   0.00022
  55        3PX         0.01518   0.00307  -0.02327  -0.01073  -0.02882
  56        3PY         0.00307   0.01164   0.04031  -0.00620   0.04698
  57        3PZ        -0.05405  -0.03120  -0.00000   0.04415   0.00441
  58        4S          0.00050   0.00029  -0.00000   0.00205   0.00192
  59        4PX        -0.00501  -0.00066   0.00795   0.00448   0.00966
  60        4PY        -0.00066  -0.00424  -0.01377   0.00258  -0.01461
  61        4PZ         0.01768   0.01021   0.00000  -0.01466  -0.00068
  62 6   H  1S          0.00000  -0.00016   0.00000  -0.00026   0.00021
  63        2S          0.00000   0.00406   0.00000  -0.00064  -0.00189
  64 7   H  1S          0.00014   0.00008   0.00000  -0.00026  -0.00010
  65        2S         -0.00352  -0.00203  -0.00000  -0.00064   0.00094
  66 8   H  1S         -0.00014   0.00008  -0.00000  -0.00026  -0.00010
  67        2S          0.00352  -0.00203   0.00000  -0.00064   0.00094
                          16        17        18        19        20
                        (E)--O    (A1)--O   (A1)--O   (E)--O    (E)--O
     Eigenvalues --    -7.94776  -7.73197  -7.57087  -5.45575  -5.45575
   1 1   B  1S          0.00000   0.99053   0.00138   0.00000  -0.00000
   2        2S          0.00000   0.10480  -0.00041   0.00000  -0.00000
   3        2PX        -0.00158   0.00000   0.00000  -0.00057   0.00000
   4        2PY         0.00000  -0.00000   0.00000   0.00000  -0.00057
   5        2PZ         0.00000   0.00247   0.00060   0.00000   0.00000
   6        3S          0.00000  -0.10750   0.00578   0.00000   0.00000
   7        3PX         0.01080   0.00000   0.00000   0.00108   0.00000
   8        3PY         0.00000  -0.00000  -0.00000   0.00000   0.00108
   9        3PZ         0.00000  -0.01086   0.00981   0.00000   0.00000
  10 2   P  1S          0.00000   0.00036  -0.29556   0.00000   0.00000
  11        2S          0.00000  -0.00203   0.99722   0.00000  -0.00000
  12        2PX         0.00002   0.00000   0.00000   0.97243   0.00000
  13        2PY         0.00000  -0.00000  -0.00000   0.00000   0.97243
  14        2PZ         0.00000   0.00018   0.00578   0.00000   0.00000
  15        3S          0.00000  -0.00705   0.13717   0.00000  -0.00000
  16        3PX        -0.00004   0.00000   0.00000   0.09029   0.00000
  17        3PY         0.00000   0.00000  -0.00000   0.00000   0.09029
  18        3PZ         0.00000  -0.00216  -0.00160   0.00000   0.00000
  19        4S          0.00000   0.03681  -0.09921   0.00000  -0.00000
  20        4PX        -0.00312   0.00000   0.00000  -0.03821   0.00000
  21        4PY         0.00000  -0.00000   0.00000   0.00000  -0.03821
  22        4PZ         0.00000  -0.01505   0.00191   0.00000  -0.00000
  23 3   Cl 1S          0.00000  -0.00012  -0.00010   0.00000  -0.00005
  24        2S          0.00000   0.00052   0.00049   0.00000   0.00028
  25        2PX         0.78673   0.00000   0.00000   0.00009   0.00000
  26        2PY         0.00000  -0.00138  -0.00025   0.00000   0.00002
  27        2PZ         0.00000   0.00003   0.00065   0.00000   0.00027
  28        3S          0.00000  -0.00546  -0.00414   0.00000  -0.00317
  29        3PX         0.06362   0.00000   0.00000  -0.00040   0.00000
  30        3PY         0.00000   0.00038   0.00076   0.00000   0.00012
  31        3PZ         0.00000   0.00023  -0.00149   0.00000  -0.00136
  32        4S          0.00000   0.02345   0.00715   0.00000   0.00539
  33        4PX        -0.02019   0.00000   0.00000   0.00102   0.00000
  34        4PY         0.00000  -0.01140  -0.00312   0.00000  -0.00120
  35        4PZ         0.00000   0.00316   0.00366   0.00000   0.00471
  36 4   Cl 1S         -0.00003  -0.00012  -0.00010  -0.00005   0.00003
  37        2S          0.00015   0.00052   0.00049   0.00024  -0.00014
  38        2PX         0.16408  -0.00119  -0.00022   0.00003   0.00003
  39        2PY         0.35949   0.00069   0.00013   0.00003   0.00007
  40        2PZ        -0.09529   0.00003   0.00065   0.00023  -0.00013
  41        3S         -0.00038  -0.00546  -0.00414  -0.00275   0.00159
  42        3PX         0.01370   0.00033   0.00066  -0.00001  -0.00023
  43        3PY         0.02882  -0.00019  -0.00038  -0.00023  -0.00027
  44        3PZ        -0.00763   0.00023  -0.00149  -0.00118   0.00068
  45        4S         -0.00333   0.02345   0.00715   0.00467  -0.00269
  46        4PX        -0.00346  -0.00987  -0.00270  -0.00065   0.00096
  47        4PY        -0.00966   0.00570   0.00156   0.00096   0.00046
  48        4PZ         0.00118   0.00316   0.00366   0.00408  -0.00235
  49 5   Cl 1S          0.00003  -0.00012  -0.00010   0.00005   0.00003
  50        2S         -0.00015   0.00052   0.00049  -0.00024  -0.00014
  51        2PX         0.16408   0.00119   0.00022   0.00003  -0.00003
  52        2PY        -0.35949   0.00069   0.00013  -0.00003   0.00007
  53        2PZ         0.09529   0.00003   0.00065  -0.00023  -0.00013
  54        3S          0.00038  -0.00546  -0.00414   0.00275   0.00159
  55        3PX         0.01370  -0.00033  -0.00066  -0.00001   0.00023
  56        3PY        -0.02882  -0.00019  -0.00038   0.00023  -0.00027
  57        3PZ         0.00763   0.00023  -0.00149   0.00118   0.00068
  58        4S          0.00333   0.02345   0.00715  -0.00467  -0.00269
  59        4PX        -0.00346   0.00987   0.00270  -0.00065  -0.00096
  60        4PY         0.00966   0.00570   0.00156  -0.00096   0.00046
  61        4PZ        -0.00118   0.00316   0.00366  -0.00408  -0.00235
  62 6   H  1S          0.00000  -0.00070  -0.00475   0.00000   0.00697
  63        2S          0.00000  -0.00277   0.01876   0.00000  -0.01385
  64 7   H  1S         -0.00018  -0.00070  -0.00475  -0.00604  -0.00349
  65        2S          0.00163  -0.00277   0.01876   0.01200   0.00693
  66 8   H  1S          0.00018  -0.00070  -0.00475   0.00604  -0.00349
  67        2S         -0.00163  -0.00277   0.01876  -0.01200   0.00693
                          21        22        23        24        25
                        (A1)--O   (A1)--O   (E)--O    (E)--O    (A1)--O
     Eigenvalues --    -5.45503  -1.14094  -1.08041  -1.08041  -0.98377
   1 1   B  1S         -0.00153  -0.09828   0.00000   0.00000  -0.01698
   2        2S         -0.00665   0.10352   0.00000   0.00000   0.01924
   3        2PX         0.00000   0.00000   0.00000   0.11159   0.00000
   4        2PY         0.00000  -0.00000   0.11159   0.00000   0.00000
   5        2PZ         0.00108  -0.02620   0.00000   0.00000   0.06798
   6        3S          0.02120   0.20995  -0.00000   0.00000   0.04886
   7        3PX         0.00000   0.00000   0.00000  -0.00501   0.00000
   8        3PY        -0.00000  -0.00000  -0.00501   0.00000   0.00000
   9        3PZ         0.00113   0.04123   0.00000   0.00000   0.00034
  10 2   P  1S          0.00172   0.01109   0.00000   0.00000   0.06410
  11        2S         -0.00600  -0.05676  -0.00000   0.00000  -0.34501
  12        2PX         0.00000   0.00000   0.00000  -0.00583   0.00000
  13        2PY        -0.00000   0.00000  -0.00583   0.00000   0.00000
  14        2PZ         0.97249   0.01217   0.00000   0.00000  -0.02529
  15        3S         -0.00123   0.08718   0.00000   0.00000   0.39785
  16        3PX         0.00000   0.00000   0.00000   0.01172   0.00000
  17        3PY        -0.00000  -0.00000   0.01172   0.00000  -0.00000
  18        3PZ         0.09099  -0.02127  -0.00000   0.00000   0.05168
  19        4S         -0.00784  -0.01380   0.00000   0.00000   0.46544
  20        4PX         0.00000   0.00000   0.00000   0.00158   0.00000
  21        4PY         0.00000   0.00000   0.00158   0.00000   0.00000
  22        4PZ        -0.03162   0.02970  -0.00000   0.00000   0.01191
  23 3   Cl 1S          0.00005   0.04055   0.06431   0.00000  -0.01006
  24        2S         -0.00022  -0.23754  -0.37815   0.00000   0.05956
  25        2PX         0.00000   0.00000   0.00000  -0.00577   0.00000
  26        2PY        -0.00000   0.02862   0.02398   0.00000   0.00003
  27        2PZ        -0.00008  -0.00890  -0.01109   0.00000  -0.00627
  28        3S          0.00413   0.30518   0.46814   0.00000  -0.06775
  29        3PX         0.00000   0.00000   0.00000   0.01276   0.00000
  30        3PY        -0.00027  -0.05867  -0.04740   0.00000  -0.00055
  31        3PZ         0.00065   0.01787   0.02187   0.00000   0.01458
  32        4S         -0.01115   0.21294   0.42848   0.00000  -0.09146
  33        4PX         0.00000   0.00000   0.00000   0.00338   0.00000
  34        4PY         0.00551  -0.01396  -0.04547   0.00000   0.01284
  35        4PZ        -0.00444   0.00427   0.02219   0.00000  -0.00455
  36 4   Cl 1S          0.00005   0.04055  -0.03215   0.05569  -0.01006
  37        2S         -0.00022  -0.23754   0.18907  -0.32749   0.05956
  38        2PX        -0.00000   0.02479  -0.01288   0.01654   0.00002
  39        2PY         0.00000  -0.01431   0.00167  -0.01288  -0.00001
  40        2PZ        -0.00008  -0.00890   0.00554  -0.00960  -0.00627
  41        3S          0.00413   0.30518  -0.23407   0.40542  -0.06775
  42        3PX        -0.00024  -0.05081   0.02605  -0.03236  -0.00048
  43        3PY         0.00014   0.02934  -0.00228   0.02605   0.00028
  44        3PZ         0.00065   0.01787  -0.01094   0.01894   0.01458
  45        4S         -0.01115   0.21294  -0.21424   0.37107  -0.09146
  46        4PX         0.00477  -0.01209   0.02115  -0.03326   0.01112
  47        4PY        -0.00275   0.00698  -0.00884   0.02115  -0.00642
  48        4PZ        -0.00444   0.00427  -0.01109   0.01921  -0.00455
  49 5   Cl 1S          0.00005   0.04055  -0.03215  -0.05569  -0.01006
  50        2S         -0.00022  -0.23754   0.18907   0.32749   0.05956
  51        2PX         0.00000  -0.02479   0.01288   0.01654  -0.00002
  52        2PY         0.00000  -0.01431   0.00167   0.01288  -0.00001
  53        2PZ        -0.00008  -0.00890   0.00554   0.00960  -0.00627
  54        3S          0.00413   0.30518  -0.23407  -0.40542  -0.06775
  55        3PX         0.00024   0.05081  -0.02605  -0.03236   0.00048
  56        3PY         0.00014   0.02934  -0.00228  -0.02605   0.00028
  57        3PZ         0.00065   0.01787  -0.01094  -0.01894   0.01458
  58        4S         -0.01115   0.21294  -0.21424  -0.37107  -0.09146
  59        4PX        -0.00477   0.01209  -0.02115  -0.03326  -0.01112
  60        4PY        -0.00275   0.00698  -0.00884  -0.02115  -0.00642
  61        4PZ        -0.00444   0.00427  -0.01109  -0.01921  -0.00455
  62 6   H  1S         -0.00274   0.01412  -0.00214   0.00000   0.12074
  63        2S          0.00537   0.00828  -0.00347   0.00000   0.04130
  64 7   H  1S         -0.00274   0.01412   0.00107   0.00185   0.12074
  65        2S          0.00537   0.00828   0.00174   0.00301   0.04130
  66 8   H  1S         -0.00274   0.01412   0.00107  -0.00185   0.12074
  67        2S          0.00537   0.00828   0.00174  -0.00301   0.04130
                          26        27        28        29        30
                        (A1)--O   (E)--O    (E)--O    (A1)--O   (E)--O
     Eigenvalues --    -0.69957  -0.64196  -0.64196  -0.57514  -0.55189
   1 1   B  1S         -0.15684   0.00000  -0.00000  -0.03604   0.00000
   2        2S          0.14315   0.00000  -0.00000   0.05066   0.00000
   3        2PX         0.00000   0.06305   0.00000   0.00000   0.25737
   4        2PY        -0.00000   0.00000   0.06305  -0.00000   0.00000
   5        2PZ         0.05016   0.00000   0.00000  -0.23474   0.00000
   6        3S          0.62809   0.00000   0.00000   0.14326   0.00000
   7        3PX         0.00000   0.03472   0.00000   0.00000   0.25014
   8        3PY         0.00000   0.00000   0.03472  -0.00000   0.00000
   9        3PZ         0.10695   0.00000   0.00000  -0.16232   0.00000
  10 2   P  1S         -0.00178   0.00000  -0.00000  -0.00570   0.00000
  11        2S          0.01348   0.00000   0.00000   0.03302   0.00000
  12        2PX         0.00000  -0.19419   0.00000   0.00000   0.03998
  13        2PY         0.00000   0.00000  -0.19419  -0.00000   0.00000
  14        2PZ         0.11462   0.00000   0.00000  -0.12150   0.00000
  15        3S          0.02068   0.00000   0.00000  -0.02546   0.00000
  16        3PX         0.00000   0.39251   0.00000   0.00000  -0.08021
  17        3PY        -0.00000   0.00000   0.39251   0.00000   0.00000
  18        3PZ        -0.22672   0.00000  -0.00000   0.24452   0.00000
  19        4S         -0.16426   0.00000  -0.00000  -0.09459   0.00000
  20        4PX         0.00000   0.18117   0.00000   0.00000  -0.07549
  21        4PY        -0.00000   0.00000   0.18117   0.00000   0.00000
  22        4PZ        -0.05472   0.00000  -0.00000   0.19176   0.00000
  23 3   Cl 1S         -0.01886   0.00000  -0.00590  -0.00563   0.00000
  24        2S          0.11366   0.00000   0.03555   0.03420   0.00000
  25        2PX         0.00000  -0.01855   0.00000   0.00000  -0.11187
  26        2PY         0.08194   0.00000   0.02461   0.08855   0.00000
  27        2PZ        -0.03220   0.00000  -0.02662   0.07160   0.00000
  28        3S         -0.12280   0.00000  -0.04405  -0.03490   0.00000
  29        3PX         0.00000   0.04014   0.00000   0.00000   0.24517
  30        3PY        -0.17453   0.00000  -0.05220  -0.19158   0.00000
  31        3PZ         0.06887   0.00000   0.05713  -0.15625   0.00000
  32        4S         -0.26736   0.00000  -0.06491  -0.09366   0.00000
  33        4PX         0.00000   0.02538   0.00000   0.00000   0.15113
  34        4PY        -0.04856   0.00000  -0.02675  -0.11137   0.00000
  35        4PZ         0.01539   0.00000   0.03660  -0.10338   0.00000
  36 4   Cl 1S         -0.01886  -0.00511   0.00295  -0.00563  -0.01108
  37        2S          0.11366   0.03079  -0.01777   0.03420   0.06746
  38        2PX         0.07096   0.01382  -0.01869   0.07669   0.08534
  39        2PY        -0.04097  -0.01869  -0.00776  -0.04428  -0.11386
  40        2PZ        -0.03220  -0.02306   0.01331   0.07160  -0.04265
  41        3S         -0.12280  -0.03815   0.02203  -0.03490  -0.07242
  42        3PX        -0.15115  -0.02912   0.03999  -0.16591  -0.18181
  43        3PY         0.08727   0.03999   0.01706   0.09579   0.24652
  44        3PZ         0.06887   0.04947  -0.02856  -0.15625   0.09182
  45        4S         -0.26736  -0.05621   0.03245  -0.09366  -0.19842
  46        4PX        -0.04205  -0.01371   0.02257  -0.09645  -0.10188
  47        4PY         0.02428   0.02257   0.01235   0.05569   0.14607
  48        4PZ         0.01539   0.03169  -0.01830  -0.10338   0.05060
  49 5   Cl 1S         -0.01886   0.00511   0.00295  -0.00563   0.01108
  50        2S          0.11366  -0.03079  -0.01777   0.03420  -0.06746
  51        2PX        -0.07096   0.01382   0.01869  -0.07669   0.08534
  52        2PY        -0.04097   0.01869  -0.00776  -0.04428   0.11386
  53        2PZ        -0.03220   0.02306   0.01331   0.07160   0.04265
  54        3S         -0.12280   0.03815   0.02203  -0.03490   0.07242
  55        3PX         0.15115  -0.02912  -0.03999   0.16591  -0.18181
  56        3PY         0.08727  -0.03999   0.01706   0.09579  -0.24652
  57        3PZ         0.06887  -0.04947  -0.02856  -0.15625  -0.09182
  58        4S         -0.26736   0.05621   0.03245  -0.09366   0.19842
  59        4PX         0.04205  -0.01371  -0.02257   0.09645  -0.10188
  60        4PY         0.02428  -0.02257   0.01235   0.05569  -0.14607
  61        4PZ         0.01539  -0.03169  -0.01830  -0.10338  -0.05060
  62 6   H  1S         -0.05558   0.00000  -0.24386   0.04911   0.00000
  63        2S         -0.04704   0.00000  -0.29957   0.06103   0.00000
  64 7   H  1S         -0.05558   0.21119   0.12193   0.04911  -0.05843
  65        2S         -0.04704   0.25944   0.14979   0.06103  -0.07035
  66 8   H  1S         -0.05558  -0.21119   0.12193   0.04911   0.05843
  67        2S         -0.04704  -0.25944   0.14979   0.06103   0.07035
                          31        32        33        34        35
                        (E)--O    (E)--O    (E)--O    (E)--O    (E)--O
     Eigenvalues --    -0.55189  -0.46606  -0.46606  -0.44290  -0.44290
   1 1   B  1S          0.00000   0.00000   0.00000   0.00000  -0.00000
   2        2S         -0.00000   0.00000  -0.00000   0.00000  -0.00000
   3        2PX         0.00000   0.07221   0.00000  -0.10802   0.00000
   4        2PY        -0.25737   0.00000   0.07221   0.00000  -0.10802
   5        2PZ         0.00000   0.00000   0.00000   0.00000   0.00000
   6        3S         -0.00000   0.00000   0.00000   0.00000   0.00000
   7        3PX         0.00000  -0.02949   0.00000   0.05970   0.00000
   8        3PY        -0.25014   0.00000  -0.02949   0.00000   0.05970
   9        3PZ         0.00000   0.00000  -0.00000   0.00000   0.00000
  10 2   P  1S          0.00000   0.00000   0.00000   0.00000   0.00000
  11        2S         -0.00000   0.00000  -0.00000   0.00000  -0.00000
  12        2PX         0.00000   0.01287   0.00000   0.01199   0.00000
  13        2PY        -0.03998   0.00000   0.01287   0.00000   0.01199
  14        2PZ         0.00000   0.00000   0.00000   0.00000   0.00000
  15        3S          0.00000   0.00000  -0.00000   0.00000   0.00000
  16        3PX         0.00000  -0.03307   0.00000  -0.03146   0.00000
  17        3PY         0.08021   0.00000  -0.03307   0.00000  -0.03146
  18        3PZ        -0.00000   0.00000  -0.00000   0.00000  -0.00000
  19        4S          0.00000   0.00000   0.00000   0.00000   0.00000
  20        4PX         0.00000   0.05681   0.00000   0.01904   0.00000
  21        4PY         0.07549   0.00000   0.05681   0.00000   0.01904
  22        4PZ        -0.00000   0.00000  -0.00000   0.00000  -0.00000
  23 3   Cl 1S          0.01279   0.00000  -0.00279   0.00000   0.00036
  24        2S         -0.07790   0.00000   0.01675   0.00000  -0.00207
  25        2PX         0.00000   0.12865   0.00000  -0.14168   0.00000
  26        2PY        -0.15107   0.00000   0.02358   0.00000  -0.14241
  27        2PZ         0.04925   0.00000  -0.18356   0.00000  -0.11769
  28        3S          0.08362   0.00000  -0.03493   0.00000   0.01033
  29        3PX         0.00000  -0.27762   0.00000   0.30844   0.00000
  30        3PY         0.32413   0.00000  -0.04951   0.00000   0.30805
  31        3PZ        -0.10602   0.00000   0.39672   0.00000   0.25624
  32        4S          0.22912   0.00000   0.01673   0.00000  -0.04035
  33        4PX         0.00000  -0.24490   0.00000   0.26080   0.00000
  34        4PY         0.18621   0.00000  -0.05438   0.00000   0.28785
  35        4PZ        -0.05842   0.00000   0.35165   0.00000   0.21754
  36 4   Cl 1S         -0.00640  -0.00241   0.00139   0.00031  -0.00018
  37        2S          0.03895   0.01451  -0.00838  -0.00179   0.00103
  38        2PX         0.11386   0.04985   0.04550  -0.14223   0.00031
  39        2PY         0.04614   0.04550   0.10238   0.00031  -0.14186
  40        2PZ        -0.02463  -0.15897   0.09178  -0.10192   0.05884
  41        3S         -0.04181  -0.03025   0.01746   0.00895  -0.00517
  42        3PX        -0.24652  -0.10654  -0.09878   0.30815   0.00017
  43        3PY        -0.10285  -0.09878  -0.22060   0.00017   0.30834
  44        3PZ         0.05301   0.34357  -0.19836   0.22191  -0.12812
  45        4S         -0.11456   0.01449  -0.00837  -0.03494   0.02017
  46        4PX        -0.14607  -0.10201  -0.08249   0.28109  -0.01171
  47        4PY        -0.06679  -0.08249  -0.19727  -0.01171   0.26756
  48        4PZ         0.02921   0.30454  -0.17582   0.18839  -0.10877
  49 5   Cl 1S         -0.00640   0.00241   0.00139  -0.00031  -0.00018
  50        2S          0.03895  -0.01451  -0.00838   0.00179   0.00103
  51        2PX        -0.11386   0.04985  -0.04550  -0.14223  -0.00031
  52        2PY         0.04614  -0.04550   0.10238  -0.00031  -0.14186
  53        2PZ        -0.02463   0.15897   0.09178   0.10192   0.05884
  54        3S         -0.04181   0.03025   0.01746  -0.00895  -0.00517
  55        3PX         0.24652  -0.10654   0.09878   0.30815  -0.00017
  56        3PY        -0.10285   0.09878  -0.22060  -0.00017   0.30834
  57        3PZ         0.05301  -0.34357  -0.19836  -0.22191  -0.12812
  58        4S         -0.11456  -0.01449  -0.00837   0.03494   0.02017
  59        4PX         0.14607  -0.10201   0.08249   0.28109   0.01171
  60        4PY        -0.06679   0.08249  -0.19727   0.01171   0.26756
  61        4PZ         0.02921  -0.30454  -0.17582  -0.18839  -0.10877
  62 6   H  1S         -0.06747   0.00000   0.03132   0.00000   0.02004
  63        2S         -0.08123   0.00000   0.09167   0.00000   0.04337
  64 7   H  1S          0.03374  -0.02712  -0.01566  -0.01736  -0.01002
  65        2S          0.04062  -0.07939  -0.04584  -0.03756  -0.02169
  66 8   H  1S          0.03374   0.02712  -0.01566   0.01736  -0.01002
  67        2S          0.04062   0.07939  -0.04584   0.03756  -0.02169
                          36        37        38        39        40
                        (A2)--O   (A1)--O   (E)--V    (E)--V    (A1)--V
     Eigenvalues --    -0.43026  -0.42612   0.12340   0.12340   0.13356
   1 1   B  1S          0.00000   0.00550   0.00000   0.00000  -0.15474
   2        2S          0.00000  -0.01446  -0.00000   0.00000   0.01198
   3        2PX        -0.00000   0.00000   0.00000   0.10284   0.00000
   4        2PY         0.00000   0.00000   0.10284   0.00000   0.00000
   5        2PZ         0.00000   0.12586  -0.00000   0.00000   0.29622
   6        3S          0.00000   0.01284  -0.00000   0.00000   2.14178
   7        3PX         0.00000   0.00000   0.00000   0.24778   0.00000
   8        3PY         0.00000  -0.00000   0.24778   0.00000   0.00000
   9        3PZ         0.00000  -0.03901  -0.00000   0.00000   1.24385
  10 2   P  1S          0.00000   0.01785   0.00000   0.00000  -0.01063
  11        2S          0.00000  -0.10050  -0.00000   0.00000   0.07567
  12        2PX         0.00000   0.00000   0.00000  -0.13847   0.00000
  13        2PY         0.00000  -0.00000  -0.13847   0.00000  -0.00000
  14        2PZ         0.00000   0.13713   0.00000   0.00000  -0.07699
  15        3S          0.00000   0.11839   0.00000   0.00000   0.04374
  16        3PX        -0.00000   0.00000   0.00000   0.27594   0.00000
  17        3PY         0.00000   0.00000   0.27594   0.00000   0.00000
  18        3PZ         0.00000  -0.28862   0.00000   0.00000   0.07502
  19        4S          0.00000   0.29853   0.00000   0.00000  -0.82730
  20        4PX         0.00000   0.00000   0.00000   1.29601   0.00000
  21        4PY         0.00000  -0.00000   1.29601   0.00000   0.00000
  22        4PZ         0.00000  -0.28711  -0.00000   0.00000   1.72496
  23 3   Cl 1S          0.00000   0.00074  -0.00927   0.00000  -0.00176
  24        2S          0.00000  -0.00426   0.05785   0.00000   0.01229
  25        2PX        -0.16849   0.00000   0.00000   0.01681   0.00000
  26        2PY         0.00000  -0.02290  -0.03464   0.00000  -0.02839
  27        2PZ         0.00000   0.13647   0.05245   0.00000   0.02569
  28        3S          0.00000   0.02041  -0.07554   0.00000   0.03543
  29        3PX         0.36794   0.00000   0.00000  -0.03356   0.00000
  30        3PY         0.00000   0.04865   0.07185   0.00000   0.06019
  31        3PZ         0.00000  -0.29523  -0.11834   0.00000  -0.04804
  32        4S          0.00000  -0.04016  -0.21412   0.00000  -0.25787
  33        4PX         0.31788   0.00000   0.00000  -0.09271   0.00000
  34        4PY         0.00000   0.05977   0.19665   0.00000   0.21066
  35        4PZ         0.00000  -0.27637  -0.17513   0.00000  -0.24469
  36 4   Cl 1S          0.00000   0.00074   0.00463  -0.00802  -0.00176
  37        2S         -0.00000  -0.00426  -0.02893   0.05010   0.01229
  38        2PX         0.08425  -0.01983   0.02228  -0.02178  -0.02459
  39        2PY         0.14592   0.01145   0.00395   0.02228   0.01420
  40        2PZ        -0.00000   0.13647  -0.02622   0.04542   0.02569
  41        3S          0.00000   0.02041   0.03777  -0.06542   0.03543
  42        3PX        -0.18397   0.04213  -0.04564   0.04549   0.05212
  43        3PY        -0.31865  -0.02432  -0.00721  -0.04564  -0.03009
  44        3PZ         0.00000  -0.29523   0.05917  -0.10249  -0.04804
  45        4S         -0.00000  -0.04016   0.10706  -0.18544  -0.25787
  46        4PX        -0.15894   0.05176  -0.12530   0.12431   0.18244
  47        4PY        -0.27529  -0.02988  -0.02037  -0.12530  -0.10533
  48        4PZ         0.00000  -0.27637   0.08757  -0.15167  -0.24469
  49 5   Cl 1S         -0.00000   0.00074   0.00463   0.00802  -0.00176
  50        2S          0.00000  -0.00426  -0.02893  -0.05010   0.01229
  51        2PX         0.08425   0.01983  -0.02228  -0.02178   0.02459
  52        2PY        -0.14592   0.01145   0.00395  -0.02228   0.01420
  53        2PZ         0.00000   0.13647  -0.02622  -0.04542   0.02569
  54        3S         -0.00000   0.02041   0.03777   0.06542   0.03543
  55        3PX        -0.18397  -0.04213   0.04564   0.04549  -0.05212
  56        3PY         0.31865  -0.02432  -0.00721   0.04564  -0.03009
  57        3PZ        -0.00000  -0.29523   0.05917   0.10249  -0.04804
  58        4S          0.00000  -0.04016   0.10706   0.18544  -0.25787
  59        4PX        -0.15894  -0.05176   0.12530   0.12431  -0.18244
  60        4PY         0.27529  -0.02988  -0.02037   0.12530  -0.10533
  61        4PZ        -0.00000  -0.27637   0.08757   0.15167  -0.24469
  62 6   H  1S          0.00000  -0.03774   0.13686   0.00000  -0.02113
  63        2S          0.00000  -0.08581   1.22266   0.00000  -0.30902
  64 7   H  1S         -0.00000  -0.03774  -0.06843  -0.11852  -0.02113
  65        2S         -0.00000  -0.08581  -0.61133  -1.05886  -0.30902
  66 8   H  1S          0.00000  -0.03774  -0.06843   0.11852  -0.02113
  67        2S          0.00000  -0.08581  -0.61133   1.05886  -0.30902
                          41        42        43        44        45
                        (A1)--V   (A1)--V   (E)--V    (E)--V    (E)--V
     Eigenvalues --     0.17541   0.21119   0.24017   0.24017   0.52544
   1 1   B  1S          0.04842  -0.17532   0.00000   0.00000  -0.00000
   2        2S         -0.02925   0.14863   0.00000  -0.00000   0.00000
   3        2PX         0.00000   0.00000   0.43257   0.00000   0.00000
   4        2PY        -0.00000   0.00000   0.00000   0.43257  -0.12084
   5        2PZ        -0.13127  -0.30240   0.00000  -0.00000  -0.00000
   6        3S         -0.35252   1.84130   0.00000  -0.00000   0.00000
   7        3PX         0.00000   0.00000   2.13184   0.00000   0.00000
   8        3PY        -0.00000   0.00000   0.00000   2.13184  -0.31103
   9        3PZ        -0.36459  -0.99276   0.00000  -0.00000   0.00000
  10 2   P  1S          0.05011   0.00055   0.00000   0.00000   0.00000
  11        2S         -0.29320  -0.00443   0.00000  -0.00000  -0.00000
  12        2PX         0.00000   0.00000   0.04463   0.00000   0.00000
  13        2PY         0.00000  -0.00000   0.00000   0.04463   0.31508
  14        2PZ        -0.06772   0.00640   0.00000   0.00000  -0.00000
  15        3S          0.36462  -0.00775   0.00000   0.00000   0.00000
  16        3PX         0.00000   0.00000  -0.06149   0.00000   0.00000
  17        3PY        -0.00000   0.00000   0.00000  -0.06149  -1.20343
  18        3PZ         0.17403  -0.01166   0.00000  -0.00000   0.00000
  19        4S          1.91887   0.16672   0.00000   0.00000  -0.00000
  20        4PX         0.00000   0.00000  -0.99879   0.00000   0.00000
  21        4PY        -0.00000  -0.00000   0.00000  -0.99879   1.36521
  22        4PZ         0.48438  -0.15526   0.00000  -0.00000  -0.00000
  23 3   Cl 1S          0.00286  -0.01568   0.00000  -0.01582  -0.01111
  24        2S         -0.01758   0.09965   0.00000   0.10310   0.06730
  25        2PX         0.00000   0.00000   0.05201   0.00000   0.00000
  26        2PY         0.00992  -0.09512   0.00000  -0.08281   0.02204
  27        2PZ        -0.02535  -0.01045   0.00000   0.02081   0.05001
  28        3S          0.04669  -0.08170   0.00000   0.00761  -0.27817
  29        3PX         0.00000   0.00000  -0.10137   0.00000   0.00000
  30        3PY        -0.02362   0.19195   0.00000   0.15702  -0.06416
  31        3PZ         0.06184   0.02242   0.00000  -0.03733  -0.14788
  32        4S         -0.00318  -0.62722   0.00000  -1.26309   0.34917
  33        4PX         0.00000   0.00000  -0.44863   0.00000   0.00000
  34        4PY        -0.02672   0.69430   0.00000   0.93464  -0.05749
  35        4PZ         0.07795   0.04706   0.00000  -0.29596   0.04006
  36 4   Cl 1S          0.00286  -0.01568  -0.01370   0.00791   0.00556
  37        2S         -0.01758   0.09965   0.08929  -0.05155  -0.03365
  38        2PX         0.00859  -0.08238  -0.04911   0.05838   0.00487
  39        2PY        -0.00496   0.04756   0.05838   0.01830   0.03047
  40        2PZ        -0.02535  -0.01045   0.01803  -0.01041  -0.02500
  41        3S          0.04669  -0.08170   0.00659  -0.00380   0.13908
  42        3PX        -0.02045   0.16623   0.09242  -0.11189  -0.01967
  43        3PY         0.01181  -0.09597  -0.11189  -0.03677  -0.09823
  44        3PZ         0.06184   0.02242  -0.03233   0.01867   0.07394
  45        4S         -0.00318  -0.62722  -1.09387   0.63154  -0.17458
  46        4PX        -0.02314   0.60128   0.58882  -0.59897   0.07529
  47        4PY         0.01336  -0.34715  -0.59897  -0.10282   0.07291
  48        4PZ         0.07795   0.04706  -0.25631   0.14798  -0.02003
  49 5   Cl 1S          0.00286  -0.01568   0.01370   0.00791   0.00556
  50        2S         -0.01758   0.09965  -0.08929  -0.05155  -0.03365
  51        2PX        -0.00859   0.08238  -0.04911  -0.05838  -0.00487
  52        2PY        -0.00496   0.04756  -0.05838   0.01830   0.03047
  53        2PZ        -0.02535  -0.01045  -0.01803  -0.01041  -0.02500
  54        3S          0.04669  -0.08170  -0.00659  -0.00380   0.13908
  55        3PX         0.02045  -0.16623   0.09242   0.11189   0.01967
  56        3PY         0.01181  -0.09597   0.11189  -0.03677  -0.09823
  57        3PZ         0.06184   0.02242   0.03233   0.01867   0.07394
  58        4S         -0.00318  -0.62722   1.09387   0.63154  -0.17458
  59        4PX         0.02314  -0.60128   0.58882   0.59897  -0.07529
  60        4PY         0.01336  -0.34715   0.59897  -0.10282   0.07291
  61        4PZ         0.07795   0.04706   0.25631   0.14798  -0.02003
  62 6   H  1S         -0.07816   0.00453   0.00000  -0.01205   0.16793
  63        2S         -1.04009   0.02373   0.00000  -0.62445   0.07589
  64 7   H  1S         -0.07816   0.00453   0.01044   0.00603  -0.08397
  65        2S         -1.04009   0.02373   0.54079   0.31223  -0.03795
  66 8   H  1S         -0.07816   0.00453  -0.01044   0.00603  -0.08397
  67        2S         -1.04009   0.02373  -0.54079   0.31223  -0.03795
                          46        47        48        49        50
                        (E)--V    (A1)--V   (A1)--V   (E)--V    (E)--V
     Eigenvalues --     0.52544   0.53207   0.57556   0.66367   0.66367
   1 1   B  1S          0.00000   0.04579   0.05584   0.00000   0.00000
   2        2S          0.00000  -0.23711  -0.16621   0.00000  -0.00000
   3        2PX        -0.12084   0.00000   0.00000  -1.08679   0.00000
   4        2PY         0.00000  -0.00000  -0.00000   0.00000  -1.08679
   5        2PZ         0.00000  -0.24823   0.31799   0.00000   0.00000
   6        3S          0.00000   0.52255  -1.39360   0.00000   0.00000
   7        3PX        -0.31103   0.00000   0.00000   2.25677   0.00000
   8        3PY         0.00000  -0.00000   0.00000   0.00000   2.25677
   9        3PZ         0.00000   0.02226  -0.79229   0.00000  -0.00000
  10 2   P  1S          0.00000  -0.01033  -0.03630   0.00000  -0.00000
  11        2S          0.00000   0.00515   0.07239   0.00000   0.00000
  12        2PX         0.31508   0.00000   0.00000  -0.05899   0.00000
  13        2PY         0.00000   0.00000   0.00000   0.00000  -0.05899
  14        2PZ         0.00000   0.31455  -0.08899   0.00000  -0.00000
  15        3S          0.00000  -0.58638  -1.51664   0.00000  -0.00000
  16        3PX        -1.20343   0.00000   0.00000   0.25226   0.00000
  17        3PY         0.00000  -0.00000  -0.00000   0.00000   0.25226
  18        3PZ         0.00000  -1.17627   0.27509   0.00000   0.00000
  19        4S          0.00000   1.10992   3.19831   0.00000   0.00000
  20        4PX         1.36521   0.00000   0.00000  -0.91075   0.00000
  21        4PY         0.00000   0.00000   0.00000   0.00000  -0.91075
  22        4PZ         0.00000   1.44962  -0.26218   0.00000  -0.00000
  23 3   Cl 1S          0.00000   0.00483  -0.02300   0.00000  -0.00477
  24        2S          0.00000  -0.02924   0.13891   0.00000   0.03291
  25        2PX         0.03328   0.00000   0.00000   0.09512   0.00000
  26        2PY         0.00000   0.00895  -0.00703   0.00000   0.06150
  27        2PZ         0.00000  -0.00892   0.03373   0.00000  -0.04495
  28        3S          0.00000   0.10170  -0.63841   0.00000  -0.05285
  29        3PX        -0.10958   0.00000   0.00000  -0.29229   0.00000
  30        3PY         0.00000  -0.01959   0.04410   0.00000  -0.15072
  31        3PZ         0.00000   0.01095  -0.11229   0.00000   0.13488
  32        4S          0.00000  -0.11971   0.74128   0.00000  -0.91367
  33        4PX         0.11638   0.00000   0.00000  -0.15480   0.00000
  34        4PY         0.00000   0.02519  -0.22315   0.00000   0.44995
  35        4PZ         0.00000   0.08172   0.19036   0.00000  -0.24382
  36 4   Cl 1S         -0.00962   0.00483  -0.02300  -0.00413   0.00238
  37        2S          0.05828  -0.02924   0.13891   0.02850  -0.01646
  38        2PX         0.02485   0.00775  -0.00609   0.06991   0.01456
  39        2PY         0.00487  -0.00448   0.00351   0.01456   0.08672
  40        2PZ         0.04331  -0.00892   0.03373  -0.03892   0.02247
  41        3S         -0.24090   0.10170  -0.63841  -0.04577   0.02643
  42        3PX        -0.07552  -0.01697   0.03820  -0.18612  -0.06130
  43        3PY        -0.01967   0.00980  -0.02205  -0.06130  -0.25690
  44        3PZ        -0.12807   0.01095  -0.11229   0.11681  -0.06744
  45        4S          0.30239  -0.11971   0.74128  -0.79126   0.45684
  46        4PX        -0.01402   0.02181  -0.19325   0.29876  -0.26186
  47        4PY         0.07529  -0.01259   0.11158  -0.26186  -0.00361
  48        4PZ         0.03470   0.08172   0.19036  -0.21115   0.12191
  49 5   Cl 1S          0.00962   0.00483  -0.02300   0.00413   0.00238
  50        2S         -0.05828  -0.02924   0.13891  -0.02850  -0.01646
  51        2PX         0.02485  -0.00775   0.00609   0.06991  -0.01456
  52        2PY        -0.00487  -0.00448   0.00351  -0.01456   0.08672
  53        2PZ        -0.04331  -0.00892   0.03373   0.03892   0.02247
  54        3S          0.24090   0.10170  -0.63841   0.04577   0.02643
  55        3PX        -0.07552   0.01697  -0.03820  -0.18612   0.06130
  56        3PY         0.01967   0.00980  -0.02205   0.06130  -0.25690
  57        3PZ         0.12807   0.01095  -0.11229  -0.11681  -0.06744
  58        4S         -0.30239  -0.11971   0.74128   0.79126   0.45684
  59        4PX        -0.01402  -0.02181   0.19325   0.29876   0.26186
  60        4PY        -0.07529  -0.01259   0.11158   0.26186  -0.00361
  61        4PZ        -0.03470   0.08172   0.19036   0.21115   0.12191
  62 6   H  1S          0.00000  -0.14540  -0.11405   0.00000   0.03051
  63        2S          0.00000  -0.30365  -0.59735   0.00000  -0.34593
  64 7   H  1S         -0.14543  -0.14540  -0.11405  -0.02643  -0.01526
  65        2S         -0.06572  -0.30365  -0.59735   0.29958   0.17297
  66 8   H  1S          0.14543  -0.14540  -0.11405   0.02643  -0.01526
  67        2S          0.06572  -0.30365  -0.59735  -0.29958   0.17297
                          51        52        53        54        55
                        (A1)--V   (E)--V    (E)--V    (A1)--V   (E)--V
     Eigenvalues --     0.67870   0.77431   0.77431   0.78091   0.81485
   1 1   B  1S         -0.01718   0.00000  -0.00000  -0.02463   0.00000
   2        2S          0.21818   0.00000   0.00000   0.31576   0.00000
   3        2PX         0.00000   0.10254   0.00000   0.00000  -0.41796
   4        2PY        -0.00000   0.00000   0.10254  -0.00000   0.00000
   5        2PZ        -0.91331   0.00000   0.00000   0.23433   0.00000
   6        3S         -0.46439   0.00000  -0.00000  -1.33139   0.00000
   7        3PX         0.00000  -0.55475   0.00000   0.00000   1.99510
   8        3PY         0.00000   0.00000  -0.55475   0.00000   0.00000
   9        3PZ         1.35883   0.00000  -0.00000  -0.77166   0.00000
  10 2   P  1S         -0.00756   0.00000  -0.00000  -0.01387   0.00000
  11        2S          0.01590   0.00000   0.00000   0.02360   0.00000
  12        2PX         0.00000  -0.02591   0.00000   0.00000   0.01521
  13        2PY        -0.00000   0.00000  -0.02591   0.00000   0.00000
  14        2PZ        -0.07283   0.00000  -0.00000  -0.02683   0.00000
  15        3S         -0.34815   0.00000  -0.00000  -0.60064   0.00000
  16        3PX         0.00000   0.11222   0.00000   0.00000  -0.04118
  17        3PY         0.00000   0.00000   0.11222  -0.00000   0.00000
  18        3PZ         0.33092   0.00000   0.00000   0.06546   0.00000
  19        4S         -0.00900   0.00000   0.00000   1.60640   0.00000
  20        4PX         0.00000  -0.00305   0.00000   0.00000  -0.49343
  21        4PY        -0.00000   0.00000  -0.00305  -0.00000   0.00000
  22        4PZ         0.00345   0.00000  -0.00000  -0.33328   0.00000
  23 3   Cl 1S          0.00121   0.00000  -0.03805   0.01885   0.00000
  24        2S         -0.00863   0.00000   0.23153  -0.11662   0.00000
  25        2PX         0.00000  -0.07107   0.00000   0.00000  -0.23650
  26        2PY        -0.00166   0.00000   0.19187  -0.16451   0.00000
  27        2PZ         0.11140   0.00000  -0.04559   0.03893   0.00000
  28        3S          0.01165   0.00000  -1.06495   0.48417   0.00000
  29        3PX         0.00000   0.23045   0.00000   0.00000   0.85081
  30        3PY        -0.00900   0.00000  -0.66621   0.56297   0.00000
  31        3PZ        -0.35296   0.00000   0.15442  -0.14001   0.00000
  32        4S          0.22632   0.00000   1.28647  -0.33696   0.00000
  33        4PX         0.00000  -0.07608   0.00000   0.00000  -1.16694
  34        4PY        -0.13594   0.00000   0.49177  -0.60387   0.00000
  35        4PZ         0.07896   0.00000  -0.07385   0.26080   0.00000
  36 4   Cl 1S          0.00121  -0.03295   0.01902   0.01885   0.01354
  37        2S         -0.00863   0.20051  -0.11577  -0.11662  -0.07885
  38        2PX        -0.00144   0.12614  -0.11386  -0.14247  -0.02533
  39        2PY         0.00083  -0.11386  -0.00533   0.08226  -0.12192
  40        2PZ         0.11140  -0.03948   0.02279   0.03893   0.07187
  41        3S          0.01165  -0.92228   0.53248   0.48417   0.49563
  42        3PX        -0.00779  -0.44205   0.38827   0.48755   0.10296
  43        3PY         0.00450   0.38827   0.00629  -0.28148   0.43177
  44        3PZ        -0.35296   0.13373  -0.07721  -0.14001  -0.24869
  45        4S          0.22632   1.11411  -0.64323  -0.33696  -1.29319
  46        4PX        -0.11773   0.34981  -0.24589  -0.52296   0.17228
  47        4PY         0.06797  -0.24589   0.06588   0.30193  -0.77320
  48        4PZ         0.07896  -0.06396   0.03693   0.26080   0.06383
  49 5   Cl 1S          0.00121   0.03295   0.01902   0.01885  -0.01354
  50        2S         -0.00863  -0.20051  -0.11577  -0.11662   0.07885
  51        2PX         0.00144   0.12614   0.11386   0.14247  -0.02533
  52        2PY         0.00083   0.11386  -0.00533   0.08226   0.12192
  53        2PZ         0.11140   0.03948   0.02279   0.03893  -0.07187
  54        3S          0.01165   0.92228   0.53248   0.48417  -0.49563
  55        3PX         0.00779  -0.44205  -0.38827  -0.48755   0.10296
  56        3PY         0.00450  -0.38827   0.00629  -0.28148  -0.43177
  57        3PZ        -0.35296  -0.13373  -0.07721  -0.14001   0.24869
  58        4S          0.22632  -1.11411  -0.64323  -0.33696   1.29319
  59        4PX         0.11773   0.34981   0.24589   0.52296   0.17228
  60        4PY         0.06797   0.24589   0.06588   0.30193   0.77320
  61        4PZ         0.07896   0.06396   0.03693   0.26080  -0.06383
  62 6   H  1S         -0.09365   0.00000  -0.09879   0.00130   0.00000
  63        2S         -0.04122   0.00000   0.10480  -0.25733   0.00000
  64 7   H  1S         -0.09365   0.08555   0.04939   0.00130  -0.04281
  65        2S         -0.04122  -0.09076  -0.05240  -0.25733   0.24556
  66 8   H  1S         -0.09365  -0.08555   0.04939   0.00130   0.04281
  67        2S         -0.04122   0.09076  -0.05240  -0.25733  -0.24556
                          56        57        58        59        60
                        (E)--V    (A1)--V   (E)--V    (E)--V    (A2)--V
     Eigenvalues --     0.81485   0.82704   0.90039   0.90039   0.92373
   1 1   B  1S          0.00000   0.01507  -0.00000   0.00000   0.00000
   2        2S         -0.00000  -0.14706  -0.00000   0.00000   0.00000
   3        2PX         0.00000   0.00000   0.00000   0.02077  -0.00000
   4        2PY        -0.41796   0.00000   0.02077   0.00000   0.00000
   5        2PZ        -0.00000  -0.52083  -0.00000   0.00000   0.00000
   6        3S         -0.00000  -0.91309  -0.00000   0.00000   0.00000
   7        3PX         0.00000   0.00000   0.00000  -0.35567  -0.00000
   8        3PY         1.99510  -0.00000  -0.35567   0.00000   0.00000
   9        3PZ         0.00000   2.04807   0.00000   0.00000   0.00000
  10 2   P  1S          0.00000   0.00836  -0.00000   0.00000   0.00000
  11        2S         -0.00000  -0.00752   0.00000   0.00000   0.00000
  12        2PX         0.00000   0.00000   0.00000  -0.05281  -0.00000
  13        2PY         0.01521  -0.00000  -0.05281   0.00000   0.00000
  14        2PZ         0.00000   0.01102  -0.00000   0.00000   0.00000
  15        3S          0.00000   0.40770  -0.00000   0.00000   0.00000
  16        3PX         0.00000   0.00000   0.00000   0.27697   0.00000
  17        3PY        -0.04118   0.00000   0.27697   0.00000   0.00000
  18        3PZ        -0.00000   0.00293   0.00000   0.00000   0.00000
  19        4S         -0.00000  -1.55709   0.00000   0.00000   0.00000
  20        4PX         0.00000   0.00000   0.00000  -0.63568  -0.00000
  21        4PY        -0.49343   0.00000  -0.63568   0.00000   0.00000
  22        4PZ         0.00000   0.42170   0.00000   0.00000   0.00000
  23 3   Cl 1S          0.01564  -0.01591  -0.00349   0.00000   0.00000
  24        2S         -0.09105   0.09390   0.02006   0.00000   0.00000
  25        2PX         0.00000   0.00000   0.00000   0.08350   0.20217
  26        2PY         0.04506  -0.11354   0.05755   0.00000   0.00000
  27        2PZ         0.08299  -0.10770   0.25949   0.00000   0.00000
  28        3S          0.57231  -0.57725  -0.14964   0.00000   0.00000
  29        3PX         0.00000   0.00000   0.00000  -0.30688  -0.73465
  30        3PY        -0.14632   0.41984  -0.20508   0.00000   0.00000
  31        3PZ        -0.28717   0.39330  -0.93776   0.00000   0.00000
  32        4S         -1.49325   1.07498   0.35421   0.00000   0.00000
  33        4PX         0.00000   0.00000   0.00000   0.40333   0.81910
  34        4PY         0.61869  -0.85948   0.10798   0.00000   0.00000
  35        4PZ         0.07370  -0.59211   1.07868   0.00000   0.00000
  36 4   Cl 1S         -0.00782  -0.01591   0.00174  -0.00302  -0.00000
  37        2S          0.04552   0.09390  -0.01003   0.01738   0.00000
  38        2PX        -0.12192  -0.09833   0.01124   0.06404  -0.10109
  39        2PY        -0.16611   0.05677   0.07702   0.01124  -0.17509
  40        2PZ        -0.04150  -0.10770  -0.12975   0.22473   0.00000
  41        3S         -0.28615  -0.57725   0.07482  -0.12959  -0.00000
  42        3PX         0.43177   0.36359  -0.04408  -0.23053   0.36732
  43        3PY         0.60153  -0.20992  -0.28143  -0.04408   0.63622
  44        3PZ         0.14358   0.39330   0.46888  -0.81212  -0.00000
  45        4S          0.74663   1.07498  -0.17710   0.30675   0.00000
  46        4PX        -0.77320  -0.74433   0.12789   0.18182  -0.40955
  47        4PY        -0.72054   0.42974   0.32949   0.12789  -0.70936
  48        4PZ        -0.03685  -0.59211  -0.53934   0.93416   0.00000
  49 5   Cl 1S         -0.00782  -0.01591   0.00174   0.00302   0.00000
  50        2S          0.04552   0.09390  -0.01003  -0.01738  -0.00000
  51        2PX         0.12192   0.09833  -0.01124   0.06404  -0.10109
  52        2PY        -0.16611   0.05677   0.07702  -0.01124   0.17509
  53        2PZ        -0.04150  -0.10770  -0.12975  -0.22473  -0.00000
  54        3S         -0.28615  -0.57725   0.07482   0.12959   0.00000
  55        3PX        -0.43177  -0.36359   0.04408  -0.23053   0.36732
  56        3PY         0.60153  -0.20992  -0.28143   0.04408  -0.63622
  57        3PZ         0.14358   0.39330   0.46888   0.81212   0.00000
  58        4S          0.74663   1.07498  -0.17710  -0.30675  -0.00000
  59        4PX         0.77320   0.74433  -0.12789   0.18182  -0.40955
  60        4PY        -0.72054   0.42974   0.32949  -0.12789   0.70936
  61        4PZ        -0.03685  -0.59211  -0.53934  -0.93416  -0.00000
  62 6   H  1S          0.04944  -0.01441  -0.11644   0.00000   0.00000
  63        2S         -0.28355   0.20835  -0.17049   0.00000   0.00000
  64 7   H  1S         -0.02472  -0.01441   0.05822   0.10084   0.00000
  65        2S          0.14178   0.20835   0.08525   0.14765   0.00000
  66 8   H  1S         -0.02472  -0.01441   0.05822  -0.10084  -0.00000
  67        2S          0.14178   0.20835   0.08525  -0.14765  -0.00000
                          61        62        63        64        65
                        (A1)--V   (E)--V    (E)--V    (A1)--V   (E)--V
     Eigenvalues --     0.99537   1.05545   1.05545   1.13064   1.24291
   1 1   B  1S         -0.00477   0.00000  -0.00000   0.02851   0.00000
   2        2S          0.20710   0.00000  -0.00000   0.19006   0.00000
   3        2PX         0.00000  -0.21986   0.00000   0.00000   0.03237
   4        2PY        -0.00000   0.00000  -0.21986  -0.00000   0.00000
   5        2PZ        -0.22412   0.00000  -0.00000  -0.16751   0.00000
   6        3S          0.31675   0.00000   0.00000  -0.80704   0.00000
   7        3PX         0.00000  -0.74178   0.00000   0.00000  -0.54651
   8        3PY         0.00000   0.00000  -0.74178   0.00000   0.00000
   9        3PZ        -0.25119   0.00000   0.00000   0.14718   0.00000
  10 2   P  1S         -0.03458   0.00000   0.00000  -0.02877   0.00000
  11        2S          0.05819   0.00000  -0.00000   0.09396   0.00000
  12        2PX         0.00000   0.01730   0.00000   0.00000  -0.16776
  13        2PY         0.00000   0.00000   0.01730   0.00000   0.00000
  14        2PZ        -0.09870   0.00000   0.00000   0.10802   0.00000
  15        3S         -1.61118   0.00000   0.00000  -0.85517   0.00000
  16        3PX         0.00000   0.01324   0.00000   0.00000   0.54346
  17        3PY        -0.00000   0.00000   0.01324  -0.00000   0.00000
  18        3PZ         0.47950   0.00000  -0.00000  -0.33056   0.00000
  19        4S          2.80715   0.00000  -0.00000   2.41906   0.00000
  20        4PX         0.00000  -0.11862   0.00000   0.00000  -1.06619
  21        4PY        -0.00000   0.00000  -0.11862   0.00000   0.00000
  22        4PZ        -0.64540   0.00000   0.00000   0.65640   0.00000
  23 3   Cl 1S          0.01735   0.00000  -0.03639  -0.00296   0.00000
  24        2S         -0.10419   0.00000   0.21928   0.01681   0.00000
  25        2PX         0.00000  -0.06456   0.00000   0.00000  -0.01445
  26        2PY         0.05061   0.00000  -0.20149   0.00249   0.00000
  27        2PZ        -0.12227   0.00000   0.04442   0.00710   0.00000
  28        3S          0.62731   0.00000  -1.27502  -0.12859   0.00000
  29        3PX         0.00000   0.23751   0.00000   0.00000   0.04643
  30        3PY        -0.21242   0.00000   0.78953  -0.00650   0.00000
  31        3PZ         0.46696   0.00000  -0.17531  -0.02156   0.00000
  32        4S         -0.86645   0.00000   1.81720   0.31527   0.00000
  33        4PX         0.00000  -0.18952   0.00000   0.00000   0.04714
  34        4PY         0.45818   0.00000  -1.34486  -0.14170   0.00000
  35        4PZ        -0.64450   0.00000   0.33733   0.02048   0.00000
  36 4   Cl 1S          0.01735  -0.03152   0.01820  -0.00296  -0.01196
  37        2S         -0.10419   0.18990  -0.10964   0.01681   0.07131
  38        2PX         0.04383  -0.16725   0.05929   0.00215  -0.03453
  39        2PY        -0.02530   0.05929  -0.09879  -0.00124   0.01159
  40        2PZ        -0.12227   0.03847  -0.02221   0.00710   0.02454
  41        3S          0.62731  -1.10420   0.63751  -0.12859  -0.46953
  42        3PX        -0.18396   0.65152  -0.23903  -0.00563   0.14065
  43        3PY         0.10621  -0.23903   0.37551   0.00325  -0.05440
  44        3PZ         0.46696  -0.15182   0.08765  -0.02156  -0.10723
  45        4S         -0.86645   1.57374  -0.90860   0.31527   0.80481
  46        4PX         0.39680  -1.05602   0.50028  -0.12271  -0.32600
  47        4PY        -0.22909   0.50028  -0.47835   0.07085   0.21543
  48        4PZ        -0.64450   0.29214  -0.16867   0.02048   0.26701
  49 5   Cl 1S          0.01735   0.03152   0.01820  -0.00296   0.01196
  50        2S         -0.10419  -0.18990  -0.10964   0.01681  -0.07131
  51        2PX        -0.04383  -0.16725  -0.05929  -0.00215  -0.03453
  52        2PY        -0.02530  -0.05929  -0.09879  -0.00124  -0.01159
  53        2PZ        -0.12227  -0.03847  -0.02221   0.00710  -0.02454
  54        3S          0.62731   1.10420   0.63751  -0.12859   0.46953
  55        3PX         0.18396   0.65152   0.23903   0.00563   0.14065
  56        3PY         0.10621   0.23903   0.37551   0.00325   0.05440
  57        3PZ         0.46696   0.15182   0.08765  -0.02156   0.10723
  58        4S         -0.86645  -1.57374  -0.90860   0.31527  -0.80481
  59        4PX        -0.39680  -1.05602  -0.50028   0.12271  -0.32600
  60        4PY        -0.22909  -0.50028  -0.47835   0.07085  -0.21543
  61        4PZ        -0.64450  -0.29214  -0.16867   0.02048  -0.26701
  62 6   H  1S         -0.05224   0.00000  -0.29689   0.72488   0.00000
  63        2S         -0.46936   0.00000   0.18128  -1.28188   0.00000
  64 7   H  1S         -0.05224   0.25712   0.14845   0.72488  -0.90091
  65        2S         -0.46936  -0.15700  -0.09064  -1.28188   1.31477
  66 8   H  1S         -0.05224  -0.25712   0.14845   0.72488   0.90091
  67        2S         -0.46936   0.15700  -0.09064  -1.28188  -1.31477
                          66        67
                        (E)--V    (A1)--V
     Eigenvalues --     1.24291   1.50376
   1 1   B  1S          0.00000  -0.15015
   2        2S          0.00000  -2.46501
   3        2PX         0.00000   0.00000
   4        2PY        -0.03237  -0.00000
   5        2PZ         0.00000  -0.21281
   6        3S         -0.00000   6.51552
   7        3PX         0.00000   0.00000
   8        3PY         0.54651   0.00000
   9        3PZ        -0.00000   0.46805
  10 2   P  1S          0.00000  -0.00506
  11        2S         -0.00000   0.08057
  12        2PX         0.00000   0.00000
  13        2PY         0.16776   0.00000
  14        2PZ        -0.00000  -0.07385
  15        3S          0.00000   0.32407
  16        3PX         0.00000   0.00000
  17        3PY        -0.54346  -0.00000
  18        3PZ         0.00000   0.37712
  19        4S         -0.00000  -2.14064
  20        4PX         0.00000   0.00000
  21        4PY         1.06619   0.00000
  22        4PZ        -0.00000   0.67239
  23 3   Cl 1S          0.01381   0.00908
  24        2S         -0.08234  -0.04546
  25        2PX         0.00000   0.00000
  26        2PY         0.04123  -0.01333
  27        2PZ        -0.02834   0.01601
  28        3S          0.54217   0.60510
  29        3PX         0.00000   0.00000
  30        3PY        -0.17206   0.04117
  31        3PZ         0.12382  -0.05918
  32        4S         -0.92932  -1.89701
  33        4PX         0.00000   0.00000
  34        4PY         0.45038   0.91952
  35        4PZ        -0.30831  -0.21075
  36 4   Cl 1S         -0.00691   0.00908
  37        2S          0.04117  -0.04546
  38        2PX        -0.01159  -0.01154
  39        2PY         0.02115   0.00666
  40        2PZ         0.01417   0.01601
  41        3S         -0.27108   0.60510
  42        3PX         0.05440   0.03566
  43        3PY        -0.07784  -0.02059
  44        3PZ        -0.06191  -0.05918
  45        4S          0.46466  -1.89701
  46        4PX        -0.21543   0.79633
  47        4PY         0.07724  -0.45976
  48        4PZ         0.15416  -0.21075
  49 5   Cl 1S         -0.00691   0.00908
  50        2S          0.04117  -0.04546
  51        2PX         0.01159   0.01154
  52        2PY         0.02115   0.00666
  53        2PZ         0.01417   0.01601
  54        3S         -0.27108   0.60510
  55        3PX        -0.05440  -0.03566
  56        3PY        -0.07784  -0.02059
  57        3PZ        -0.06191  -0.05918
[...]
  49 5   Cl 1S          0.00000  -0.00000  -0.00000  -0.00000   0.00000
  50        2S          0.00000   0.00000   0.00002   0.00004   0.00000
  51        2PX         0.00000   0.00000   0.00001   0.00002   0.00000
  52        2PY         0.00000   0.00003   0.00004   0.00011   0.00000
  53        2PZ         0.00000   0.00000   0.00000   0.00000   0.00000
  54        3S          0.00000  -0.00009  -0.00004  -0.00037   0.00000
  55        3PX         0.00000   0.00011  -0.00033  -0.00072   0.00000
  56        3PY         0.00000  -0.00191  -0.00205  -0.00504   0.00000
  57        3PZ        -0.00000   0.00000   0.00000   0.00000  -0.00004
  58        4S          0.00000   0.00160  -0.00549  -0.00233   0.00000
  59        4PX         0.00000   0.00158  -0.00158  -0.00309   0.00000
  60        4PY         0.00000  -0.00940  -0.01289  -0.02388   0.00000
  61        4PZ        -0.00004   0.00000   0.00000   0.00000  -0.00008
  62 6   H  1S          0.00000   0.00000   0.00000   0.00000   0.00001
  63        2S          0.00001   0.00004   0.00000   0.00011   0.00066
  64 7   H  1S         -0.00000   0.00001  -0.00001   0.00001  -0.00001
  65        2S         -0.00005   0.00041   0.00023   0.00041  -0.00011
  66 8   H  1S         -0.00000   0.00001  -0.00001   0.00001  -0.00001
  67        2S         -0.00005   0.00041   0.00023   0.00041  -0.00011
                          36        37        38        39        40
  36 4   Cl 1S          2.14408
  37        2S         -0.14867   2.38768
  38        2PX         0.00000   0.00000   2.02577
  39        2PY         0.00000   0.00000  -0.00000   2.04467
  40        2PZ         0.00000   0.00000   0.00000   0.00000   2.04906
  41        3S         -0.00195  -0.11821   0.00000   0.00000   0.00000
  42        3PX         0.00000   0.00000  -0.03889  -0.00000   0.00000
  43        3PY         0.00000   0.00000  -0.00000  -0.05248   0.00000
  44        3PZ         0.00000   0.00000   0.00000   0.00000  -0.05516
  45        4S          0.00580  -0.17638   0.00000   0.00000   0.00000
  46        4PX         0.00000   0.00000  -0.01837  -0.00000   0.00000
  47        4PY         0.00000   0.00000   0.00000  -0.02153   0.00000
  48        4PZ         0.00000   0.00000   0.00000   0.00000  -0.02327
  49 5   Cl 1S          0.00000   0.00000   0.00000   0.00000   0.00000
  50        2S          0.00000   0.00000   0.00000   0.00000   0.00000
  51        2PX         0.00000   0.00000   0.00000   0.00000   0.00000
  52        2PY         0.00000   0.00000   0.00000   0.00000   0.00000
  53        2PZ         0.00000   0.00000   0.00000   0.00000   0.00000
  54        3S          0.00000  -0.00000   0.00000   0.00000   0.00000
  55        3PX        -0.00000   0.00000   0.00000   0.00000   0.00000
  56        3PY        -0.00000  -0.00000  -0.00000   0.00000   0.00000
  57        3PZ         0.00000   0.00000   0.00000   0.00000   0.00000
  58        4S         -0.00000   0.00000   0.00003   0.00000   0.00000
  59        4PX        -0.00000   0.00006   0.00019   0.00000   0.00000
  60        4PY         0.00000  -0.00000  -0.00000  -0.00000   0.00000
  61        4PZ         0.00000   0.00000   0.00000   0.00000   0.00000
  62 6   H  1S         -0.00000   0.00000   0.00000   0.00000   0.00000
  63        2S          0.00000  -0.00000  -0.00000   0.00000   0.00000
  64 7   H  1S         -0.00000   0.00000  -0.00000   0.00000   0.00000
  65        2S          0.00000  -0.00000  -0.00000  -0.00000   0.00000
  66 8   H  1S          0.00000  -0.00000  -0.00000  -0.00000  -0.00000
  67        2S         -0.00000  -0.00000  -0.00000  -0.00000  -0.00000
                          41        42        43        44        45
  41        3S          0.73086
  42        3PX         0.00000   0.61876
  43        3PY         0.00000  -0.00000   0.70730
  44        3PZ         0.00000   0.00000   0.00000   0.72263
  45        4S          0.51975   0.00000   0.00000   0.00000   0.77206
  46        4PX         0.00000   0.26761   0.00000   0.00000   0.00000
  47        4PY         0.00000  -0.00000   0.33955   0.00000   0.00000
  48        4PZ         0.00000   0.00000   0.00000   0.37455   0.00000
  49 5   Cl 1S          0.00000  -0.00000  -0.00000   0.00000  -0.00000
  50        2S         -0.00000   0.00000  -0.00000   0.00000   0.00000
  51        2PX         0.00000   0.00000  -0.00000   0.00000   0.00003
  52        2PY         0.00000   0.00000   0.00000   0.00000   0.00000
  53        2PZ         0.00000   0.00000   0.00000   0.00000   0.00000
  54        3S         -0.00000  -0.00000   0.00000   0.00000  -0.00009
  55        3PX        -0.00000  -0.00011  -0.00000   0.00000  -0.00180
  56        3PY         0.00000  -0.00000  -0.00000   0.00000  -0.00000
  57        3PZ         0.00000   0.00000   0.00000  -0.00000   0.00000
  58        4S         -0.00009  -0.00180  -0.00000   0.00000   0.00160
  59        4PX        -0.00041  -0.00825  -0.00000   0.00000  -0.00782
  60        4PY        -0.00000   0.00000   0.00011   0.00000   0.00000
  61        4PZ         0.00000   0.00000   0.00000  -0.00004   0.00000
  62 6   H  1S         -0.00000  -0.00000  -0.00000  -0.00000   0.00001
  63        2S          0.00000   0.00003  -0.00000  -0.00005   0.00041
  64 7   H  1S         -0.00000   0.00000  -0.00000  -0.00000   0.00001
  65        2S          0.00000   0.00001   0.00003  -0.00005   0.00041
  66 8   H  1S          0.00000   0.00000   0.00000   0.00000   0.00000
  67        2S          0.00000   0.00000   0.00000   0.00001   0.00004
                          46        47        48        49        50
  46        4PX         0.34225
  47        4PY        -0.00000   0.45171
  48        4PZ         0.00000   0.00000   0.52880
  49 5   Cl 1S         -0.00000   0.00000   0.00000   2.14408
  50        2S          0.00006  -0.00000   0.00000  -0.14867   2.38768
  51        2PX         0.00019  -0.00000   0.00000   0.00000   0.00000
  52        2PY         0.00000  -0.00000   0.00000   0.00000   0.00000
  53        2PZ         0.00000   0.00000   0.00000   0.00000   0.00000
  54        3S         -0.00041  -0.00000   0.00000  -0.00195  -0.11821
  55        3PX        -0.00825   0.00000   0.00000   0.00000   0.00000
  56        3PY        -0.00000   0.00011   0.00000   0.00000   0.00000
  57        3PZ         0.00000   0.00000  -0.00004   0.00000   0.00000
  58        4S         -0.00782   0.00000   0.00000   0.00580  -0.17638
  59        4PX        -0.04301   0.00000   0.00000   0.00000   0.00000
  60        4PY         0.00000   0.00158   0.00000   0.00000   0.00000
  61        4PZ         0.00000   0.00000  -0.00008   0.00000   0.00000
  62 6   H  1S          0.00001  -0.00000  -0.00001  -0.00000   0.00000
  63        2S          0.00064   0.00000  -0.00011   0.00000  -0.00000
  64 7   H  1S          0.00001   0.00000  -0.00001   0.00000  -0.00000
  65        2S          0.00009   0.00054  -0.00011  -0.00000  -0.00000
  66 8   H  1S          0.00000   0.00000   0.00001  -0.00000   0.00000
  67        2S          0.00008   0.00003   0.00066   0.00000  -0.00000
                          51        52        53        54        55
  51        2PX         2.02577
  52        2PY        -0.00000   2.04467
  53        2PZ         0.00000   0.00000   2.04906
  54        3S          0.00000   0.00000   0.00000   0.73086
  55        3PX        -0.03889  -0.00000   0.00000   0.00000   0.61876
  56        3PY         0.00000  -0.05248   0.00000   0.00000   0.00000
  57        3PZ         0.00000   0.00000  -0.05516   0.00000   0.00000
  58        4S          0.00000   0.00000   0.00000   0.51975   0.00000
  59        4PX        -0.01837   0.00000   0.00000   0.00000   0.26761
  60        4PY         0.00000  -0.02153   0.00000   0.00000   0.00000
  61        4PZ         0.00000   0.00000  -0.02327   0.00000   0.00000
  62 6   H  1S          0.00000   0.00000   0.00000  -0.00000  -0.00000
  63        2S         -0.00000   0.00000   0.00000   0.00000   0.00003
  64 7   H  1S         -0.00000  -0.00000  -0.00000   0.00000   0.00000
  65        2S         -0.00000  -0.00000  -0.00000   0.00000   0.00000
  66 8   H  1S         -0.00000   0.00000   0.00000  -0.00000   0.00000
  67        2S         -0.00000  -0.00000   0.00000   0.00000   0.00001
                          56        57        58        59        60
  56        3PY         0.70730
  57        3PZ         0.00000   0.72263
  58        4S          0.00000   0.00000   0.77206
  59        4PX         0.00000   0.00000   0.00000   0.34225
  60        4PY         0.33955   0.00000   0.00000  -0.00000   0.45171
  61        4PZ         0.00000   0.37455   0.00000   0.00000   0.00000
  62 6   H  1S         -0.00000  -0.00000   0.00001   0.00001  -0.00000
  63        2S         -0.00000  -0.00005   0.00041   0.00064   0.00000
  64 7   H  1S          0.00000   0.00000   0.00000   0.00000   0.00000
  65        2S          0.00000   0.00001   0.00004   0.00008   0.00003
  66 8   H  1S         -0.00000  -0.00000   0.00001   0.00001   0.00000
  67        2S          0.00003  -0.00005   0.00041   0.00009   0.00054
                          61        62        63        64        65
  61        4PZ         0.52880
  62 6   H  1S         -0.00001   0.17438
  63        2S         -0.00011   0.12405   0.24468
  64 7   H  1S          0.00001  -0.00001  -0.00247   0.17438
  65        2S          0.00066  -0.00247  -0.01517   0.12405   0.24468
  66 8   H  1S         -0.00001  -0.00001  -0.00247  -0.00001  -0.00247
  67        2S         -0.00011  -0.00247  -0.01517  -0.00247  -0.01517
                          66        67
  66 8   H  1S          0.17438
  67        2S          0.12405   0.24468
     Gross orbital populations:
                           1
   1 1   B  1S          1.99103
   2        2S          0.32142
   3        2PX         0.41201
   4        2PY         0.41201
   5        2PZ         0.34057
   6        3S          0.93419
   7        3PX         0.24839
   8        3PY         0.24839
   9        3PZ         0.25223
  10 2   P  1S          1.99853
  11        2S          1.96966
  12        2PX         1.95706
  13        2PY         1.95706
  14        2PZ         1.95999
  15        3S          0.80590
  16        3PX         0.65167
  17        3PY         0.65167
  18        3PZ         0.74755
  19        4S          0.77189
  20        4PX         0.31785
  21        4PY         0.31785
  22        4PZ         0.40578
  23 3   Cl 1S          1.99862
  24        2S          1.95943
  25        2PX         1.97118
  26        2PY         1.96416
  27        2PZ         1.97019
  28        3S          1.11196
  29        3PX         1.08537
  30        3PY         0.88828
  31        3PZ         1.05738
  32        4S          0.89940
  33        4PX         0.85936
  34        4PY         0.53533
  35        4PZ         0.86503
  36 4   Cl 1S          1.99862
  37        2S          1.95943
  38        2PX         1.96591
  39        2PY         1.96942
  40        2PZ         1.97019
  41        3S          1.11196
  42        3PX         0.93755
  43        3PY         1.03610
  44        3PZ         1.05738
  45        4S          0.89940
  46        4PX         0.61634
  47        4PY         0.77835
  48        4PZ         0.86503
  49 5   Cl 1S          1.99862
  50        2S          1.95943
  51        2PX         1.96591
  52        2PY         1.96942
  53        2PZ         1.97019
  54        3S          1.11196
  55        3PX         0.93755
  56        3PY         1.03610
  57        3PZ         1.05738
  58        4S          0.89940
  59        4PX         0.61634
  60        4PY         0.77835
  61        4PZ         0.86503
  62 6   H  1S          0.43201
  63        2S          0.51140
  64 7   H  1S          0.43201
  65        2S          0.51140
  66 8   H  1S          0.43201
  67        2S          0.51140
          Condensed to atoms (all electrons):
               1          2          3          4          5          6
     1  B    4.552947   0.112059   0.179626   0.179626   0.179626  -0.014550
     2  P    0.112059  13.699281  -0.094677  -0.094677  -0.094677   0.328385
     3  Cl   0.179626  -0.094677  17.230329  -0.076122  -0.076122   0.000837
     4  Cl   0.179626  -0.094677  -0.076122  17.230329  -0.076122   0.000913
     5  Cl   0.179626  -0.094677  -0.076122  -0.076122  17.230329   0.000913
     6  H   -0.014550   0.328385   0.000837   0.000913   0.000913   0.667170
     7  H   -0.014550   0.328385   0.000913   0.000913   0.000837  -0.020133
     8  H   -0.014550   0.328385   0.000913   0.000837   0.000913  -0.020133
               7          8
     1  B   -0.014550  -0.014550
     2  P    0.328385   0.328385
     3  Cl   0.000913   0.000913
     4  Cl   0.000913   0.000837
     5  Cl   0.000837   0.000913
     6  H   -0.020133  -0.020133
     7  H    0.667170  -0.020133
     8  H   -0.020133   0.667170
 Mulliken charges:
               1
     1  B   -0.160235
     2  P    0.487536
     3  Cl  -0.165698
     4  Cl  -0.165698
     5  Cl  -0.165698
     6  H    0.056598
     7  H    0.056598
     8  H    0.056598
 Sum of Mulliken charges =  -0.00000
 Mulliken charges with hydrogens summed into heavy atoms:
               1
     1  B   -0.160235
     2  P    0.657329
     3  Cl  -0.165698
     4  Cl  -0.165698
     5  Cl  -0.165698
 Electronic spatial extent (au):  <R**2>=           1082.9038
 Charge=             -0.0000 electrons
 Dipole moment (field-independent basis, Debye):
    X=              0.0000    Y=              0.0000    Z=              7.6801  Tot=              7.6801
 Quadrupole moment (field-independent basis, Debye-Ang):
   XX=            -66.0392   YY=            -66.0392   ZZ=            -50.5569
   XY=              0.0000   XZ=              0.0000   YZ=             -0.0000
 Traceless Quadrupole moment (field-independent basis, Debye-Ang):
   XX=             -5.1608   YY=             -5.1608   ZZ=             10.3215
   XY=              0.0000   XZ=              0.0000   YZ=             -0.0000
 Octapole moment (field-independent basis, Debye-Ang**2):
  XXX=              0.0000  YYY=             -5.0047  ZZZ=             24.2548  XYY=             -0.0000
  XXY=              5.0047  XXZ=              6.4591  XZZ=              0.0000  YZZ=              0.0000
  YYZ=              6.4591  XYZ=             -0.0000
 Hexadecapole moment (field-independent basis, Debye-Ang**3):
 XXXX=           -481.1472 YYYY=           -481.1472 ZZZZ=           -468.1667 XXXY=              0.0000
 XXXZ=              0.0000 YYYX=              0.0000 YYYZ=              0.0772 ZZZX=             -0.0000
 ZZZY=             -0.0000 XXYY=           -160.3824 XXZZ=           -161.4138 YYZZ=           -161.4138
 XXYZ=             -0.0772 YYXZ=              0.0000 ZZXY=              0.0000
 N-N= 4.095411338662D+02 E-N=-4.955524115757D+03  KE= 1.736086186834D+03
 Symmetry A'   KE= 1.201296217640D+03
 Symmetry A"   KE= 5.347899691945D+02
 Orbital energies and kinetic energies (alpha):
                                 1                 2
   1         (E)--O         -104.093696        136.077218
   2         (E)--O         -104.093696        136.077218
   3         (A1)--O        -104.093442        136.083502
   4         (A1)--O         -79.492543        105.406923
   5         (E)--O          -10.488580         22.340202
   6         (E)--O          -10.488580         22.340202
   7         (A1)--O         -10.487768         22.360431
   8         (E)--O           -7.951579         20.330857
   9         (E)--O           -7.951579         20.330857
  10         (A1)--O          -7.951383         20.341265
  11         (E)--O           -7.948096         20.361317
  12         (E)--O           -7.948096         20.361317
  13         (A2)--O          -7.947993         20.359069
  14         (A1)--O          -7.947987         20.366014
  15         (E)--O           -7.947756         20.370264
  16         (E)--O           -7.947756         20.370264
  17         (A1)--O          -7.731968         10.824848
  18         (A1)--O          -7.570874         16.217861
  19         (E)--O           -5.455753         14.554313
  20         (E)--O           -5.455753         14.554313
  21         (A1)--O          -5.455026         14.557109
  22         (A1)--O          -1.140942          2.491918
  23         (E)--O           -1.080406          2.928613
  24         (E)--O           -1.080406          2.928613
  25         (A1)--O          -0.983766          1.657173
  26         (A1)--O          -0.699565          1.880533
  27         (E)--O           -0.641958          1.151906
  28         (E)--O           -0.641958          1.151906
  29         (A1)--O          -0.575142          1.637846
  30         (E)--O           -0.551889          1.934202
  31         (E)--O           -0.551889          1.934202
  32         (E)--O           -0.466058          2.201038
  33         (E)--O           -0.466058          2.201038
  34         (E)--O           -0.442900          2.350552
  35         (E)--O           -0.442900          2.350552
  36         (A2)--O          -0.430261          2.435434
  37         (A1)--O          -0.426118          2.222205
  38         (E)--V            0.123397          1.123856
  39         (E)--V            0.123397          1.123856
  40         (A1)--V           0.133562          1.169876
  41         (A1)--V           0.175411          1.617847
  42         (A1)--V           0.211186          2.141504
  43         (E)--V            0.240173          1.456365
  44         (E)--V            0.240173          1.456365
  45         (E)--V            0.525442          2.443750
  46         (E)--V            0.525442          2.443750
  47         (A1)--V           0.532072          2.485689
  48         (A1)--V           0.575556          2.180913
  49         (E)--V            0.663666          2.181517
  50         (E)--V            0.663666          2.181517
  51         (A1)--V           0.678702          2.295468
  52         (E)--V            0.774305          3.274783
  53         (E)--V            0.774305          3.274783
  54         (A1)--V           0.780911          3.328682
  55         (E)--V            0.814848          3.246665
  56         (E)--V            0.814848          3.246665
  57         (A1)--V           0.827036          3.018326
  58         (E)--V            0.900386          3.483753
  59         (E)--V            0.900386          3.483753
  60         (A2)--V           0.923731          3.559686
  61         (A1)--V           0.995369          3.081491
  62         (E)--V            1.055454          3.601207
  63         (E)--V            1.055454          3.601207
  64         (A1)--V           1.130642          2.536144
  65         (E)--V            1.242905          2.769517
  66         (E)--V            1.242905          2.769517
  67         (A1)--V           1.503761          2.327182
 Total kinetic energy from orbitals= 1.736086186834D+03
 1\1\GINC-IISERK51\SP\RHF\3-21G\B1Cl3H3P1\GAUSSIAN\17-Jun-2025\0\\# hf/
 3-21g pop=full geom=connectivity\\Title Card Required\\0,1\B,0,0.,0.,-
 0.198057\P,0,0.,0.,1.863118\Cl,0,0.,1.81223,-0.670957\Cl,0,1.569437,-0
 .906115,-0.670957\Cl,0,-1.569437,-0.906115,-0.670957\H,0,0.,-1.281049,
 2.420769\H,0,1.109421,0.640525,2.420769\H,0,-1.109421,0.640525,2.42076
 9\\Version=EM64L-G16RevB.01\State=1-A1\HF=-1737.2499483\RMSD=3.395e-09
 \Dipole=0.,0.,3.0216019\Quadrupole=-3.8369034,-3.8369034,7.6738067,0.,
 0.,0.\PG=C03V [C3(B1P1),3SGV(Cl1H1)]\\@


 When cryptography is outlawed, bayl bhgynjf jvyy unir cevinpl.
 Job cpu time:       0 days  0 hours  0 minutes  0.6 seconds.
 Elapsed time:       0 days  0 hours  0 minutes  0.5 seconds.
 File lengths (MBytes):  RWF=      6 Int=      0 D2E=      0 Chk=      1 Scr=      1
 Normal termination of Gaussian 16 at Tue Jun 17 15:51:19 2025.
