 Entering Gaussian System, Link 0=g16
 Input=/home/gaussian/Documents/Summer_Internship/Acid_Base_adduct/Adduct/PH3-BCl3/PH3_only_adduct_opt.com
 Output=/home/gaussian/Documents/Summer_Internship/Acid_Base_adduct/Adduct/PH3-BCl3/PH3_only_adduct_opt.log
 Initial command:
 /usr/local/g16/l1.exe "/home/gaussian/tmp/Gau-92845.inp" -scrdir="/home/gaussian/tmp/"
 Entering Link 1 = /usr/local/g16/l1.exe PID=     92848.
  
 Copyright (c) 1988-2017, Gaussian, Inc.  All Rights Reserved.
  
 This is part of the Gaussian(R) 16 program.  It is based on
 the Gaussian(R) 09 system (copyright 2009, Gaussian, Inc.),
 the Gaussian(R) 03 system (copyright 2003, Gaussian, Inc.),
 the Gaussian(R) 98 system (copyright 1998, Gaussian, Inc.),
 the Gaussian(R) 94 system (copyright 1995, Gaussian, Inc.),
 the Gaussian 92(TM) system (copyright 1992, Gaussian, Inc.),
 the Gaussian 90(TM) system (copyright 1990, Gaussian, Inc.),
 the Gaussian 88(TM) system (copyright 1988, Gaussian, Inc.),
 the Gaussian 86(TM) system (copyright 1986, Carnegie Mellon
 University), and the Gaussian 82(TM) system (copyright 1983,
 Carnegie Mellon University). Gaussian is a federally registered
 trademark of Gaussian, Inc.
  
 This software contains proprietary and confidential information,
 including trade secrets, belonging to Gaussian, Inc.
  
 This software is provided under written license and may be
 used, copied, transmitted, or stored only in accord with that
 written license.
  
 The following legend is applicable only to US Government
 contracts under FAR:
  
                    RESTRICTED RIGHTS LEGEND
  
 Use, reproduction and disclosure by the US Government is
 subject to restrictions as set forth in subparagraphs (a)
 and (c) of the Commercial Computer Software - Restricted
 Rights clause in FAR 52.227-19.
  
 Gaussian, Inc.
 340 Quinnipiac St., Bldg. 40, Wallingford CT 06492
  
  
 ---------------------------------------------------------------
 Warning -- This program may not be used in any manner that
 competes with the business of Gaussian, Inc. or will provide
 assistance to any competitor of Gaussian, Inc.  The licensee
 of this program is prohibited from giving any competitor of
 Gaussian, Inc. access to this program.  By using this program,
 the user acknowledges that Gaussian, Inc. is engaged in the
 business of creating and licensing software in the field of
 computational chemistry and represents and warrants to the
 licensee that it is not a competitor of Gaussian, Inc. and that
 it will not use this program in any manner prohibited above.
 ---------------------------------------------------------------
  

 Cite this work as:
 Gaussian 16, Revision B.01,
 M. J. Frisch, G. W. Trucks, H. B. Schlegel, G. E. Scuseria, 
 M. A. Robb, J. R. Cheeseman, G. Scalmani, V. Barone, 
 G. A. Petersson, H. Nakatsuji, X. Li, M. Caricato, A. V. Marenich, 
 J. Bloino, B. G. Janesko, R. Gomperts, B. Mennucci, H. P. Hratchian, 
 J. V. Ortiz, A. F. Izmaylov, J. L. Sonnenberg, D. Williams-Young, 
 F. Ding, F. Lipparini, F. Egidi, J. Goings, B. Peng, A. Petrone, 
 T. Henderson, D. Ranasinghe, V. G. Zakrzewski, J. Gao, N. Rega, 
 G. Zheng, W. Liang, M. Hada, M. Ehara, K. Toyota, R. Fukuda, 
 J. Hasegawa, M. Ishida, T. Nakajima, Y. Honda, O. Kitao, H. Nakai, 
 T. Vreven, K. Throssell, J. A. Montgomery, Jr., J. E. Peralta, 
 F. Ogliaro, M. J. Bearpark, J. J. Heyd, E. N. Brothers, K. N. Kudin, 
 V. N. Staroverov, T. A. Keith, R. Kobayashi, J. Normand, 
 K. Raghavachari, A. P. Rendell, J. C. Burant, S. S. Iyengar, 
 J. Tomasi, M. Cossi, J. M. Millam, M. Klene, C. Adamo, R. Cammi, 
 J. W. Ochterski, R. L. Martin, K. Morokuma, O. Farkas, 
 J. B. Foresman, and D. J. Fox, Gaussian, Inc., Wallingford CT, 2016.
 
 ******************************************
 Gaussian 16:  EM64L-G16RevB.01 20-Dec-2017
                17-Jun-2025 
 ******************************************
 %chk=PH3_only_adduct_opt.chk
 -------------------------------------
 # hf/3-21g pop=full geom=connectivity
 -------------------------------------
 1/38=1,57=2,172=1/1;
 2/12=2,17=6,18=5,40=1/2;
 3/5=5,11=9,25=1,30=1/1,2,3;
 4//1;
 5/5=2,38=5/2;
 6/7=3,28=1/1;
 99/5=1,9=1/99;
 -------------------
 Title Card Required
 -------------------
 Symbolic Z-matrix:
 Charge =  0 Multiplicity = 1
 P                     0.        0.        1.86312 
 H                     0.       -1.28105   2.42077 
 H                     1.10942   0.64053   2.42077 
 H                    -1.10942   0.64053   2.42077 
 
                          Input orientation:                          
 ---------------------------------------------------------------------
 Center     Atomic      Atomic             Coordinates (Angstroms)
 Number     Number       Type             X           Y           Z
 ---------------------------------------------------------------------
      1         15           0        0.000000    0.000000    1.863118
      2          1           0        0.000000   -1.281049    2.420769
      3          1           0        1.109421    0.640525    2.420769
      4          1           0       -1.109421    0.640525    2.420769
 ---------------------------------------------------------------------
                    Distance matrix (angstroms):
                    1          2          3          4
     1  P    0.000000
     2  H    1.397162   0.000000
     3  H    1.397162   2.218842   0.000000
     4  H    1.397162   2.218842   2.218842   0.000000
 Stoichiometry    H3P
 Framework group  C3[C3(P),X(H3)]
 Deg. of freedom     2
 Full point group                 C3      NOp   3
 Largest Abelian subgroup         C1      NOp   1
 Largest concise Abelian subgroup C1      NOp   1
                         Standard orientation:                         
 ---------------------------------------------------------------------
 Center     Atomic      Atomic             Coordinates (Angstroms)
 Number     Number       Type             X           Y           Z
 ---------------------------------------------------------------------
      1         15           0       -0.000000   -0.000000    0.092942
      2          1           0        0.000000    1.281049   -0.464709
      3          1           0        1.109421   -0.640525   -0.464709
      4          1           0       -1.109421   -0.640525   -0.464709
 ---------------------------------------------------------------------
 Rotational constants (GHZ):         151.4244433         151.4244433         101.8542794
 Standard basis: 3-21G (6D, 7F)
 There are    19 symmetry adapted cartesian basis functions of A   symmetry.
 There are    19 symmetry adapted basis functions of A   symmetry.
    19 basis functions,    36 primitive gaussians,    19 cartesian basis functions
     9 alpha electrons        9 beta electrons
       nuclear repulsion energy        17.7592967352 Hartrees.
 NAtoms=    4 NActive=    4 NUniq=    2 SFac= 4.00D+00 NAtFMM=   60 NAOKFM=F Big=F
 Integral buffers will be    131072 words long.
 Raffenetti 1 integral format.
 Two-electron integral symmetry is turned on.
 One-electron integrals computed using PRISM.
 NBasis=    19 RedAO= T EigKep=  3.06D-02  NBF=    19
 NBsUse=    19 1.00D-06 EigRej= -1.00D+00 NBFU=    19
 ExpMin= 1.23D-01 ExpMax= 1.05D+03 ExpMxC= 1.05D+03 IAcc=3 IRadAn=         5 AccDes= 0.00D+00
 Harris functional with IExCor=  205 and IRadAn=       5 diagonalized for initial guess.
 HarFok:  IExCor=  205 AccDes= 0.00D+00 IRadAn=         5 IDoV= 1 UseB2=F ITyADJ=14
 ICtDFT=  3500011 ScaDFX=  1.000000  1.000000  1.000000  1.000000
 FoFCou: FMM=F IPFlag=           0 FMFlag=      100000 FMFlg1=           0
         NFxFlg=           0 DoJE=T BraDBF=F KetDBF=T FulRan=T
         wScrn=  0.000000 ICntrl=       500 IOpCl=  0 I1Cent=   200000004 NGrid=           0
         NMat0=    1 NMatS0=      1 NMatT0=    0 NMatD0=    1 NMtDS0=    0 NMtDT0=    0
 Petite list used in FoFCou.
 Initial guess orbital symmetries:
       Occupied  (A) (A) (E) (E) (A) (A) (E) (E) (A)
       Virtual   (E) (E) (A) (E) (E) (A) (A) (A) (E) (E)
 The electronic state of the initial guess is 1-A.
 Keep R1 ints in memory in canonical form, NReq=822654.
 Requested convergence on RMS density matrix=1.00D-08 within 128 cycles.
 Requested convergence on MAX density matrix=1.00D-06.
 Requested convergence on             energy=1.00D-06.
 No special actions if energy rises.
 SCF Done:  E(RHF) =  -340.697617456     A.U. after    9 cycles
            NFock=  9  Conv=0.28D-08     -V/T= 2.0005

 **********************************************************************

            Population analysis using the SCF Density.

 **********************************************************************

 Orbital symmetries:
       Occupied  (A) (A) (E) (E) (A) (A) (E) (E) (A)
       Virtual   (E) (E) (A) (E) (E) (A) (A) (A) (E) (E)
 The electronic state is 1-A.
 Alpha  occ. eigenvalues --  -79.37674  -7.45354  -5.33888  -5.33888  -5.33505
 Alpha  occ. eigenvalues --   -0.87466  -0.54679  -0.54679  -0.35352
 Alpha virt. eigenvalues --    0.19883   0.19883   0.24065   0.59684   0.59684
 Alpha virt. eigenvalues --    0.60971   0.66285   1.19445   1.27763   1.27763
     Molecular Orbital Coefficients:
                           1         2         3         4         5
                           O         O         O         O         O
     Eigenvalues --   -79.37674  -7.45354  -5.33888  -5.33888  -5.33505
   1 1   P  1S          0.98703  -0.29569  -0.00000   0.00000  -0.00435
   2        2S          0.04872   0.99700   0.00000  -0.00000   0.01520
   3        2PX         0.00000  -0.00000   0.77386  -0.58929  -0.00000
   4        2PY         0.00000  -0.00000   0.58929   0.77386   0.00000
   5        2PZ        -0.00016  -0.01290   0.00000  -0.00000   0.97359
   6        3S         -0.01505   0.12579   0.00000   0.00000  -0.00325
   7        3PX        -0.00000   0.00000   0.07042  -0.05362  -0.00000
   8        3PY        -0.00000   0.00000   0.05362   0.07042   0.00000
   9        3PZ         0.00025  -0.00434   0.00000  -0.00000   0.08556
  10        4S          0.00948  -0.07360  -0.00000  -0.00000   0.00840
  11        4PX         0.00000  -0.00000  -0.02468   0.01879   0.00000
  12        4PY         0.00000  -0.00000  -0.01879  -0.02468  -0.00000
  13        4PZ        -0.00114   0.01176   0.00000   0.00000  -0.02763
  14 2   H  1S          0.00094  -0.00492  -0.00396  -0.00521   0.00265
  15        2S         -0.00187   0.01601   0.00587   0.00771  -0.00492
  16 3   H  1S          0.00094  -0.00492  -0.00253   0.00604   0.00265
  17        2S         -0.00187   0.01601   0.00374  -0.00894  -0.00492
  18 4   H  1S          0.00094  -0.00492   0.00649  -0.00083   0.00265
  19        2S         -0.00187   0.01601  -0.00961   0.00123  -0.00492
                           6         7         8         9        10
                           O         O         O         O         V
     Eigenvalues --    -0.87466  -0.54679  -0.54679  -0.35352   0.19883
   1 1   P  1S          0.06312  -0.00000  -0.00000   0.02573   0.00000
   2        2S         -0.33957   0.00000   0.00000  -0.14306  -0.00000
   3        2PX         0.00000   0.11734  -0.14643  -0.00000   0.01817
   4        2PY         0.00000   0.14643   0.11734   0.00000  -0.12680
   5        2PZ         0.04856  -0.00000   0.00000  -0.21708   0.00000
   6        3S          0.38879  -0.00000  -0.00000   0.17873   0.00000
   7        3PX        -0.00000  -0.23081   0.28802  -0.00000  -0.03216
   8        3PY        -0.00000  -0.28802  -0.23081  -0.00000   0.22445
   9        3PZ        -0.09409   0.00000  -0.00000   0.42798  -0.00000
  10        4S          0.43543   0.00000   0.00000   0.33733   0.00000
  11        4PX         0.00000  -0.09773   0.12195   0.00000  -0.20141
  12        4PY         0.00000  -0.12195  -0.09773  -0.00000   1.40579
  13        4PZ        -0.04462  -0.00000  -0.00000   0.51970  -0.00000
  14 2   H  1S          0.13060  -0.19949  -0.15986  -0.07282  -0.12368
  15        2S          0.06796  -0.28420  -0.22775  -0.09728  -1.24780
  16 3   H  1S          0.13060  -0.03870   0.25269  -0.07282   0.07719
  17        2S          0.06796  -0.05514   0.36000  -0.09728   0.77872
  18 4   H  1S          0.13060   0.23819  -0.09283  -0.07282   0.04650
  19        2S          0.06796   0.33933  -0.13225  -0.09728   0.46908
                          11        12        13        14        15
                           V         V         V         V         V
     Eigenvalues --     0.19883   0.24065   0.59684   0.59684   0.60971
   1 1   P  1S          0.00000   0.04448  -0.00000   0.00000  -0.03423
   2        2S         -0.00000  -0.26382   0.00000  -0.00000   0.07552
   3        2PX        -0.12680   0.00000  -0.00566  -0.33838  -0.00000
   4        2PY        -0.01817   0.00000  -0.33838   0.00566   0.00000
   5        2PZ         0.00000   0.08611  -0.00000   0.00000  -0.23618
   6        3S          0.00000   0.28714  -0.00000   0.00000  -1.38310
   7        3PX         0.22445  -0.00000   0.02106   1.25796   0.00000
   8        3PY         0.03216  -0.00000   1.25796  -0.02106  -0.00000
   9        3PZ        -0.00000  -0.18649   0.00000  -0.00000   0.91396
  10        4S          0.00000   1.82151   0.00000  -0.00000   2.43802
  11        4PX         1.40579  -0.00000  -0.01996  -1.19245  -0.00000
  12        4PY         0.20141  -0.00000  -1.19245   0.01996   0.00000
  13        4PZ        -0.00000  -0.92291  -0.00000   0.00000  -1.36811
  14 2   H  1S         -0.01772  -0.07129   0.17141  -0.00287  -0.17028
  15        2S         -0.17877  -1.13016  -0.05476   0.00092  -0.57703
  16 3   H  1S         -0.09825  -0.07129  -0.08322   0.14988  -0.17028
  17        2S         -0.99124  -1.13016   0.02659  -0.04788  -0.57703
  18 4   H  1S          0.11597  -0.07129  -0.08819  -0.14701  -0.17028
  19        2S          1.17001  -1.13016   0.02817   0.04697  -0.57703
                          16        17        18        19
                           V         V         V         V
     Eigenvalues --     0.66285   1.19445   1.27763   1.27763
   1 1   P  1S         -0.04465  -0.02998  -0.00000   0.00000
   2        2S          0.13484   0.10995   0.00000  -0.00000
   3        2PX        -0.00000  -0.00000   0.14334   0.06458
   4        2PY         0.00000  -0.00000   0.06458  -0.14334
   5        2PZ         0.25217  -0.09948  -0.00000   0.00000
   6        3S         -1.48520  -0.78793  -0.00000   0.00000
   7        3PX         0.00000   0.00000  -0.42232  -0.19026
   8        3PY        -0.00000   0.00000  -0.19026   0.42232
   9        3PZ        -0.89754   0.30164   0.00000  -0.00000
  10        4S          2.25076   2.14347   0.00000  -0.00000
  11        4PX        -0.00000  -0.00000   0.77836   0.35066
  12        4PY         0.00000  -0.00000   0.35066  -0.77836
  13        4PZ         0.39849  -0.70908  -0.00000   0.00000
  14 2   H  1S         -0.06566   0.73852   0.44771  -0.99380
  15        2S         -0.47652  -1.22876  -0.58628   1.30139
  16 3   H  1S         -0.06566   0.73852   0.63680   0.88463
  17        2S         -0.47652  -1.22876  -0.83389  -1.15843
  18 4   H  1S         -0.06566   0.73852  -1.08451   0.10917
  19        2S         -0.47652  -1.22876   1.42018  -0.14296
     Density Matrix:
                           1         2         3         4         5
   1 1   P  1S          2.13266
   2        2S         -0.54379   2.26477
   3        2PX         0.00000  -0.00000   1.96266
   4        2PY         0.00000  -0.00000   0.00000   1.96266
   5        2PZ        -0.00620   0.03300   0.00000  -0.00000   1.99503
   6        3S         -0.04580  -0.06593   0.00000  -0.00000  -0.04940
   7        3PX        -0.00000   0.00000   0.03368  -0.00000   0.00000
   8        3PY        -0.00000   0.00000   0.00000   0.03368   0.00000
   9        3PZ         0.01245  -0.06457  -0.00000   0.00000  -0.02823
  10        4S          0.13450  -0.53781  -0.00000   0.00000  -0.08592
  11        4PX         0.00000  -0.00000  -0.11899   0.00000   0.00000
  12        4PY         0.00000  -0.00000  -0.00000  -0.11899   0.00000
  13        4PZ         0.01215  -0.09589   0.00000  -0.00000  -0.28406
  14 2   H  1S          0.01749  -0.07750  -0.00000  -0.10867   0.04958
  15        2S         -0.00955   0.01328   0.00000  -0.11784   0.03883
  16 3   H  1S          0.01749  -0.07750  -0.09411   0.05433   0.04958
  17        2S         -0.00955   0.01328  -0.10205   0.05892   0.03883
  18 4   H  1S          0.01749  -0.07750   0.09411   0.05433   0.04958
  19        2S         -0.00955   0.01328   0.10205   0.05892   0.03883
                           6         7         8         9        10
   6        3S          0.39833
   7        3PX         0.00000   0.28813
   8        3PY         0.00000   0.00000   0.28813
   9        3PZ         0.07817  -0.00000  -0.00000   0.39872
  10        4S          0.44031  -0.00000  -0.00000   0.20888   0.61794
  11        4PX         0.00000   0.10987  -0.00000   0.00000  -0.00000
  12        4PY         0.00000   0.00000   0.10987  -0.00000  -0.00000
  13        4PZ         0.15425   0.00000   0.00000   0.44841   0.30955
  14 2   H  1S          0.07423  -0.00000   0.18755  -0.08641   0.06539
  15        2S          0.02219   0.00000   0.27056  -0.09704  -0.00892
  16 3   H  1S          0.07423   0.16242  -0.09378  -0.08641   0.06539
  17        2S          0.02219   0.23431  -0.13528  -0.09704  -0.00892
  18 4   H  1S          0.07423  -0.16242  -0.09378  -0.08641   0.06539
  19        2S          0.02219  -0.23431  -0.13528  -0.09704  -0.00892
                          11        12        13        14        15
  11        4PX         0.05077
  12        4PY         0.00000   0.05077
  13        4PZ         0.00000   0.00000   0.54597
  14 2   H  1S         -0.00000   0.08031  -0.08761   0.17557
  15        2S         -0.00000   0.11323  -0.10652   0.21781   0.29419
  16 3   H  1S          0.06955  -0.04015  -0.08761  -0.02061  -0.06131
  17        2S          0.09806  -0.05661  -0.10652  -0.06131  -0.10400
  18 4   H  1S         -0.06955  -0.04015  -0.08761  -0.02061  -0.06131
  19        2S         -0.09806  -0.05661  -0.10652  -0.06131  -0.10400
                          16        17        18        19
  16 3   H  1S          0.17557
  17        2S          0.21781   0.29419
  18 4   H  1S         -0.02061  -0.06131   0.17557
  19        2S         -0.06131  -0.10400   0.21781   0.29419
    Full Mulliken population analysis:
                           1         2         3         4         5
   1 1   P  1S          2.13266
   2        2S         -0.13660   2.26477
   3        2PX         0.00000   0.00000   1.96266
   4        2PY         0.00000   0.00000   0.00000   1.96266
   5        2PZ         0.00000   0.00000   0.00000   0.00000   1.99503
   6        3S         -0.00155  -0.02330   0.00000   0.00000   0.00000
   7        3PX         0.00000   0.00000   0.01018   0.00000   0.00000
   8        3PY         0.00000   0.00000   0.00000   0.01018   0.00000
   9        3PZ         0.00000   0.00000   0.00000   0.00000  -0.00854
  10        4S          0.00442  -0.13715   0.00000   0.00000   0.00000
  11        4PX         0.00000   0.00000  -0.00880   0.00000   0.00000
  12        4PY         0.00000   0.00000   0.00000  -0.00880   0.00000
  13        4PZ         0.00000   0.00000   0.00000   0.00000  -0.02101
  14 2   H  1S          0.00001  -0.00064   0.00000  -0.00113  -0.00023
  15        2S         -0.00012   0.00134  -0.00000  -0.00426  -0.00061
  16 3   H  1S          0.00001  -0.00064  -0.00085  -0.00028  -0.00023
  17        2S         -0.00012   0.00134  -0.00319  -0.00106  -0.00061
  18 4   H  1S          0.00001  -0.00064  -0.00085  -0.00028  -0.00023
  19        2S         -0.00012   0.00134  -0.00319  -0.00106  -0.00061
                           6         7         8         9        10
   6        3S          0.39833
   7        3PX         0.00000   0.28813
   8        3PY         0.00000   0.00000   0.28813
   9        3PZ         0.00000   0.00000   0.00000   0.39872
  10        4S          0.36721   0.00000   0.00000   0.00000   0.61794
  11        4PX         0.00000   0.07104   0.00000   0.00000   0.00000
  12        4PY         0.00000   0.00000   0.07104   0.00000   0.00000
  13        4PZ         0.00000   0.00000   0.00000   0.28995   0.00000
  14 2   H  1S          0.01161   0.00000   0.04906   0.00984   0.01617
  15        2S          0.00907   0.00000   0.09455   0.01476  -0.00519
  16 3   H  1S          0.01161   0.03679   0.01226   0.00984   0.01617
  17        2S          0.00907   0.07091   0.02364   0.01476  -0.00519
  18 4   H  1S          0.01161   0.03679   0.01226   0.00984   0.01617
  19        2S          0.00907   0.07091   0.02364   0.01476  -0.00519
                          11        12        13        14        15
  11        4PX         0.05077
  12        4PY         0.00000   0.05077
  13        4PZ         0.00000   0.00000   0.54597
  14 2   H  1S          0.00000   0.02948   0.01400   0.17557
  15        2S          0.00000   0.06687   0.02739   0.14068   0.29419
  16 3   H  1S          0.02211   0.00737   0.01400  -0.00001  -0.00278
  17        2S          0.05015   0.01672   0.02739  -0.00278  -0.02078
  18 4   H  1S          0.02211   0.00737   0.01400  -0.00001  -0.00278
  19        2S          0.05015   0.01672   0.02739  -0.00278  -0.02078
                          16        17        18        19
  16 3   H  1S          0.17557
  17        2S          0.14068   0.29419
  18 4   H  1S         -0.00001  -0.00278   0.17557
  19        2S         -0.00278  -0.02078   0.14068   0.29419
     Gross orbital populations:
                           1
   1 1   P  1S          1.99860
   2        2S          1.96981
   3        2PX         1.95596
   4        2PY         1.95596
   5        2PZ         1.96297
   6        3S          0.80271
   7        3PX         0.58476
   8        3PY         0.58476
   9        3PZ         0.75393
  10        4S          0.88536
  11        4PX         0.25753
  12        4PY         0.25753
  13        4PZ         0.93906
  14 2   H  1S          0.43881
  15        2S          0.59154
  16 3   H  1S          0.43881
  17        2S          0.59154
  18 4   H  1S          0.43881
  19        2S          0.59154
          Condensed to atoms (all electrons):
               1          2          3          4
     1  P   13.913105   0.331946   0.331946   0.331946
     2  H    0.331946   0.751126  -0.026360  -0.026360
     3  H    0.331946  -0.026360   0.751126  -0.026360
     4  H    0.331946  -0.026360  -0.026360   0.751126
 Mulliken charges:
               1
     1  P    0.091055
     2  H   -0.030352
     3  H   -0.030352
     4  H   -0.030352
 Sum of Mulliken charges =   0.00000
 Mulliken charges with hydrogens summed into heavy atoms:
               1
     1  P    0.000000
 Electronic spatial extent (au):  <R**2>=             56.2963
 Charge=              0.0000 electrons
 Dipole moment (field-independent basis, Debye):
    X=             -0.0000    Y=             -0.0000    Z=             -1.5025  Tot=              1.5025
 Quadrupole moment (field-independent basis, Debye-Ang):
   XX=            -14.9298   YY=            -14.9298   ZZ=            -18.4792
   XY=              0.0000   XZ=             -0.0000   YZ=              0.0000
 Traceless Quadrupole moment (field-independent basis, Debye-Ang):
   XX=              1.1831   YY=              1.1831   ZZ=             -2.3663
   XY=              0.0000   XZ=             -0.0000   YZ=              0.0000
 Octapole moment (field-independent basis, Debye-Ang**2):
  XXX=             -0.0000  YYY=             -0.3309  ZZZ=             -2.4192  XYY=             -0.0000
  XXY=              0.3309  XXZ=             -0.1831  XZZ=             -0.0000  YZZ=              0.0000
  YYZ=             -0.1831  XYZ=             -0.0000
 Hexadecapole moment (field-independent basis, Debye-Ang**3):
 XXXX=            -32.8141 YYYY=            -32.8141 ZZZZ=            -33.6529 XXXY=              0.0000
 XXXZ=              0.0000 YYYX=              0.0000 YYYZ=             -0.0592 ZZZX=             -0.0000
 ZZZY=              0.0000 XXYY=            -10.9380 XXZZ=            -11.0633 YYZZ=            -11.0633
 XXYZ=              0.0592 YYXZ=             -0.0000 ZZXY=              0.0000
 N-N= 1.775929673520D+01 E-N=-8.471252845057D+02  KE= 3.405411450684D+02
 Orbital energies and kinetic energies (alpha):
                                 1                 2
   1         O               -79.376735        105.410619
   2         O                -7.453539         16.232478
   3         O                -5.338881         14.559851
   4         O                -5.338881         14.559851
   5         O                -5.335048         14.585474
   6         O                -0.874661          1.506663
   7         O                -0.546788          1.046531
   8         O                -0.546788          1.046531
   9         O                -0.353522          1.322574
  10         V                 0.198832          0.788637
  11         V                 0.198832          0.788637
  12         V                 0.240653          1.348269
  13         V                 0.596845          2.436743
  14         V                 0.596845          2.436743
  15         V                 0.609713          1.922822
  16         V                 0.662854          2.262241
  17         V                 1.194453          2.537282
  18         V                 1.277633          2.571590
  19         V                 1.277633          2.571590
 Total kinetic energy from orbitals= 3.405411450684D+02
 1\1\GINC-IISERK51\SP\RHF\3-21G\H3P1\GAUSSIAN\17-Jun-2025\0\\# hf/3-21g
  pop=full geom=connectivity\\Title Card Required\\0,1\P,0,0.,0.,1.8631
 18\H,0,0.,-1.281049,2.420769\H,0,1.109421,0.640525,2.420769\H,0,-1.109
 421,0.640525,2.420769\\Version=EM64L-G16RevB.01\State=1-A\HF=-340.6976
 175\RMSD=2.825e-09\Dipole=0.,0.,0.5911258\Quadrupole=0.8796356,0.87963
 56,-1.7592713,0.,0.,0.\PG=C03 [C3(P1),X(H3)]\\@


 IBM COMPATIBILITY IS LIKE PREGNANCY. YOU ARE OR
 OR YOU ARE NOT. -- ADAM OSBORNE
 Job cpu time:       0 days  0 hours  0 minutes  0.4 seconds.
 Elapsed time:       0 days  0 hours  0 minutes  0.3 seconds.
 File lengths (MBytes):  RWF=      6 Int=      0 D2E=      0 Chk=      1 Scr=      1
 Normal termination of Gaussian 16 at Tue Jun 17 15:57:11 2025.
