 Entering Gaussian System, Link 0=g16
 Input=/home/gaussian/Documents/Summer_Internship/Aromaticity/hetrocyclic/thiphene/meth_thiophene_isomer_opt.com
 Output=/home/gaussian/Documents/Summer_Internship/Aromaticity/hetrocyclic/thiphene/meth_thiophene_isomer_opt.log
 Initial command:
 /usr/local/g16/l1.exe "/home/gaussian/tmp/Gau-47154.inp" -scrdir="/home/gaussian/tmp/"
 Entering Link 1 = /usr/local/g16/l1.exe PID=     47157.
  
 Copyright (c) 1988-2017, Gaussian, Inc.  All Rights Reserved.
  
 This is part of the Gaussian(R) 16 program.  It is based on
 the Gaussian(R) 09 system (copyright 2009, Gaussian, Inc.),
 the Gaussian(R) 03 system (copyright 2003, Gaussian, Inc.),
 the Gaussian(R) 98 system (copyright 1998, Gaussian, Inc.),
 the Gaussian(R) 94 system (copyright 1995, Gaussian, Inc.),
 the Gaussian 92(TM) system (copyright 1992, Gaussian, Inc.),
 the Gaussian 90(TM) system (copyright 1990, Gaussian, Inc.),
 the Gaussian 88(TM) system (copyright 1988, Gaussian, Inc.),
 the Gaussian 86(TM) system (copyright 1986, Carnegie Mellon
 University), and the Gaussian 82(TM) system (copyright 1983,
 Carnegie Mellon University). Gaussian is a federally registered
 trademark of Gaussian, Inc.
  
 This software contains proprietary and confidential information,
 including trade secrets, belonging to Gaussian, Inc.
  
 This software is provided under written license and may be
 used, copied, transmitted, or stored only in accord with that
 written license.
  
 The following legend is applicable only to US Government
 contracts under FAR:
  
                    RESTRICTED RIGHTS LEGEND
  
 Use, reproduction and disclosure by the US Government is
 subject to restrictions as set forth in subparagraphs (a)
 and (c) of the Commercial Computer Software - Restricted
 Rights clause in FAR 52.227-19.
  
 Gaussian, Inc.
 340 Quinnipiac St., Bldg. 40, Wallingford CT 06492
  
  
 ---------------------------------------------------------------
 Warning -- This program may not be used in any manner that
 competes with the business of Gaussian, Inc. or will provide
 assistance to any competitor of Gaussian, Inc.  The licensee
 of this program is prohibited from giving any competitor of
 Gaussian, Inc. access to this program.  By using this program,
 the user acknowledges that Gaussian, Inc. is engaged in the
 business of creating and licensing software in the field of
 computational chemistry and represents and warrants to the
 licensee that it is not a competitor of Gaussian, Inc. and that
 it will not use this program in any manner prohibited above.
 ---------------------------------------------------------------
  

 Cite this work as:
 Gaussian 16, Revision B.01,
 M. J. Frisch, G. W. Trucks, H. B. Schlegel, G. E. Scuseria, 
 M. A. Robb, J. R. Cheeseman, G. Scalmani, V. Barone, 
 G. A. Petersson, H. Nakatsuji, X. Li, M. Caricato, A. V. Marenich, 
 J. Bloino, B. G. Janesko, R. Gomperts, B. Mennucci, H. P. Hratchian, 
 J. V. Ortiz, A. F. Izmaylov, J. L. Sonnenberg, D. Williams-Young, 
 F. Ding, F. Lipparini, F. Egidi, J. Goings, B. Peng, A. Petrone, 
 T. Henderson, D. Ranasinghe, V. G. Zakrzewski, J. Gao, N. Rega, 
 G. Zheng, W. Liang, M. Hada, M. Ehara, K. Toyota, R. Fukuda, 
 J. Hasegawa, M. Ishida, T. Nakajima, Y. Honda, O. Kitao, H. Nakai, 
 T. Vreven, K. Throssell, J. A. Montgomery, Jr., J. E. Peralta, 
 F. Ogliaro, M. J. Bearpark, J. J. Heyd, E. N. Brothers, K. N. Kudin, 
 V. N. Staroverov, T. A. Keith, R. Kobayashi, J. Normand, 
 K. Raghavachari, A. P. Rendell, J. C. Burant, S. S. Iyengar, 
 J. Tomasi, M. Cossi, J. M. Millam, M. Klene, C. Adamo, R. Cammi, 
 J. W. Ochterski, R. L. Martin, K. Morokuma, O. Farkas, 
 J. B. Foresman, and D. J. Fox, Gaussian, Inc., Wallingford CT, 2016.
 
 ******************************************
 Gaussian 16:  EM64L-G16RevB.01 20-Dec-2017
                14-Jun-2025 
 ******************************************
 %chk=meth_thiophene_isomer_opt.chk
 -----------------------------------------
 # opt freq am1 pop=full geom=connectivity
 -----------------------------------------
 1/18=20,19=15,26=1,38=1,57=2/1,3;
 2/9=110,12=2,17=6,18=5,40=1/2;
 3/5=2,25=1,41=700000,71=1/1,2,3;
 4/35=1/1;
 5/5=2,35=1,38=5/2;
 6/7=3,28=1/1;
 7//1,2,3,16;
 1/18=20,19=15,26=1/3(2);
 2/9=110/2;
 99//99;
 2/9=110/2;
 3/5=2,25=1,41=700000,71=1,135=20/1,2,3;
 4/5=5,16=3,35=1/1;
 5/5=2,35=1,38=5/2;
 7//1,2,3,16;
 1/18=20,19=15,26=1/3(-5);
 2/9=110/2;
 6/7=3,19=2,28=1/1;
 99/9=1/99;
 -----------------------------------------
 methyl_thiophene_isomer opt freq with AM1
 -----------------------------------------
 Symbolic Z-matrix:
 Charge =  0 Multiplicity = 1
 C                     1.04761   1.11875   0.00001 
 C                    -0.32198   1.24571  -0.00001 
 C                    -0.97329  -0.0354   -0.00004 
 C                    -0.05092  -1.06241  -0.00002 
 S                     1.51716  -0.48667   0.00001 
 H                     1.76094   1.94072   0.00004 
 H                    -0.87237   2.18825  -0.00004 
 C                    -2.43415  -0.19004   0.00002 
 H                    -0.20072  -1.66527  -0.87123 
 H                    -0.20075  -1.66527   0.87119 
 H                    -2.87617  -1.09657   0.3574 
 H                    -3.05619   0.60386  -0.35732 
 

 GradGradGradGradGradGradGradGradGradGradGradGradGradGradGradGradGradGrad
 Berny optimization.
 Initialization pass.
                           ----------------------------
                           !    Initial Parameters    !
                           ! (Angstroms and Degrees)  !
 --------------------------                            --------------------------
 ! Name  Definition              Value          Derivative Info.                !
 --------------------------------------------------------------------------------
 ! R1    R(1,2)                  1.3755         estimate D2E/DX2                !
 ! R2    R(1,5)                  1.6727         estimate D2E/DX2                !
 ! R3    R(1,6)                  1.0883         estimate D2E/DX2                !
 ! R4    R(2,3)                  1.4372         estimate D2E/DX2                !
 ! R5    R(2,7)                  1.0915         estimate D2E/DX2                !
 ! R6    R(3,4)                  1.3804         estimate D2E/DX2                !
 ! R7    R(3,8)                  1.469          estimate D2E/DX2                !
 ! R8    R(4,5)                  1.6704         estimate D2E/DX2                !
 ! R9    R(4,9)                  1.07           estimate D2E/DX2                !
 ! R10   R(4,10)                 1.07           estimate D2E/DX2                !
 ! R11   R(8,11)                 1.07           estimate D2E/DX2                !
 ! R12   R(8,12)                 1.07           estimate D2E/DX2                !
 ! A1    A(2,1,5)              111.599          estimate D2E/DX2                !
 ! A2    A(2,1,6)              125.6564         estimate D2E/DX2                !
 ! A3    A(5,1,6)              122.7446         estimate D2E/DX2                !
 ! A4    A(1,2,3)              111.6524         estimate D2E/DX2                !
 ! A5    A(1,2,7)              125.5785         estimate D2E/DX2                !
 ! A6    A(3,2,7)              122.7691         estimate D2E/DX2                !
 ! A7    A(2,3,4)              111.1241         estimate D2E/DX2                !
 ! A8    A(2,3,8)              122.9909         estimate D2E/DX2                !
 ! A9    A(4,3,8)              125.885          estimate D2E/DX2                !
 ! A10   A(3,4,5)              111.7661         estimate D2E/DX2                !
 ! A11   A(3,4,9)              109.0037         estimate D2E/DX2                !
 ! A12   A(3,4,10)             109.0037         estimate D2E/DX2                !
 ! A13   A(5,4,9)              109.0037         estimate D2E/DX2                !
 ! A14   A(5,4,10)             109.0037         estimate D2E/DX2                !
 ! A15   A(9,4,10)             109.0196         estimate D2E/DX2                !
 ! A16   A(1,5,4)               93.8584         estimate D2E/DX2                !
 ! A17   A(3,8,11)             120.0            estimate D2E/DX2                !
 ! A18   A(3,8,12)             120.0            estimate D2E/DX2                !
 ! A19   A(11,8,12)            120.0            estimate D2E/DX2                !
 ! D1    D(5,1,2,3)             -0.0004         estimate D2E/DX2                !
 ! D2    D(5,1,2,7)           -179.9985         estimate D2E/DX2                !
 ! D3    D(6,1,2,3)           -179.999          estimate D2E/DX2                !
 ! D4    D(6,1,2,7)              0.0028         estimate D2E/DX2                !
 ! D5    D(2,1,5,4)              0.0001         estimate D2E/DX2                !
 ! D6    D(6,1,5,4)            179.9988         estimate D2E/DX2                !
 ! D7    D(1,2,3,4)              0.0005         estimate D2E/DX2                !
 ! D8    D(1,2,3,8)            179.9963         estimate D2E/DX2                !
 ! D9    D(7,2,3,4)            179.9987         estimate D2E/DX2                !
 ! D10   D(7,2,3,8)             -0.0055         estimate D2E/DX2                !
 ! D11   D(2,3,4,5)             -0.0004         estimate D2E/DX2                !
 ! D12   D(2,3,4,9)           -120.5545         estimate D2E/DX2                !
 ! D13   D(2,3,4,10)           120.5537         estimate D2E/DX2                !
 ! D14   D(8,3,4,5)           -179.9961         estimate D2E/DX2                !
 ! D15   D(8,3,4,9)             59.4498         estimate D2E/DX2                !
 ! D16   D(8,3,4,10)           -59.442          estimate D2E/DX2                !
 ! D17   D(2,3,8,11)          -157.3135         estimate D2E/DX2                !
 ! D18   D(2,3,8,12)            22.6865         estimate D2E/DX2                !
 ! D19   D(4,3,8,11)            22.6817         estimate D2E/DX2                !
 ! D20   D(4,3,8,12)          -157.3183         estimate D2E/DX2                !
 ! D21   D(3,4,5,1)              0.0002         estimate D2E/DX2                !
 ! D22   D(9,4,5,1)            120.5543         estimate D2E/DX2                !
 ! D23   D(10,4,5,1)          -120.554          estimate D2E/DX2                !
 --------------------------------------------------------------------------------
 Trust Radius=3.00D-01 FncErr=1.00D-07 GrdErr=1.00D-07 EigMax=2.50D+02 EigMin=1.00D-04
 Number of steps in this run=     64 maximum allowed number of steps=    100.
 GradGradGradGradGradGradGradGradGradGradGradGradGradGradGradGradGradGrad

                          Input orientation:                          
 ---------------------------------------------------------------------
 Center     Atomic      Atomic             Coordinates (Angstroms)
 Number     Number       Type             X           Y           Z
 ---------------------------------------------------------------------
      1          6           0        1.047612    1.118753    0.000006
      2          6           0       -0.321980    1.245711   -0.000014
      3          6           0       -0.973288   -0.035401   -0.000035
      4          6           0       -0.050921   -1.062406   -0.000019
      5         16           0        1.517158   -0.486667    0.000009
      6          1           0        1.760943    1.940722    0.000039
      7          1           0       -0.872369    2.188251   -0.000043
      8          6           0       -2.434149   -0.190037    0.000020
      9          1           0       -0.200721   -1.665273   -0.871232
     10          1           0       -0.200752   -1.665273    0.871188
     11          1           0       -2.876166   -1.096569    0.357402
     12          1           0       -3.056188    0.603861   -0.357322
 ---------------------------------------------------------------------
                    Distance matrix (angstroms):
                    1          2          3          4          5
     1  C    0.000000
     2  C    1.375464   0.000000
     3  C    2.327253   1.437167   0.000000
     4  C    2.442177   2.323979   1.380399   0.000000
     5  S    1.672677   2.526571   2.531000   1.670433   0.000000
     6  H    1.088335   2.195816   3.373586   3.507368   2.439600
     7  H    2.197761   1.091471   2.225941   3.352842   3.586785
     8  C    3.719622   2.553944   1.469023   2.537874   3.962426
     9  H    3.173041   3.040979   2.003079   1.070000   2.258159
    10  H    3.173039   3.040973   2.003079   1.070000   2.258159
    11  H    4.520112   3.483947   2.207891   2.847968   4.449832
    12  H    4.151381   2.831171   2.207891   3.454814   4.715128
                    6          7          8          9         10
     6  H    0.000000
     7  H    2.644920   0.000000
     8  C    4.705203   2.845244   0.000000
     9  H    4.196479   4.007459   2.814889   0.000000
    10  H    4.196469   4.007463   2.814839   1.742419   0.000000
    11  H    5.554783   3.864325   1.070000   2.998494   2.783027
    12  H    5.011951   2.721581   1.070000   3.683309   3.848600
                   11         12
    11  H    0.000000
    12  H    1.853294   0.000000
 Stoichiometry    C5H6S
 Framework group  C1[X(C5H6S)]
 Deg. of freedom    30
 Full point group                 C1      NOp   1
 Largest Abelian subgroup         C1      NOp   1
 Largest concise Abelian subgroup C1      NOp   1
                         Standard orientation:                         
 ---------------------------------------------------------------------
 Center     Atomic      Atomic             Coordinates (Angstroms)
 Number     Number       Type             X           Y           Z
 ---------------------------------------------------------------------
      1          6           0       -0.994562    1.143755   -0.016108
      2          6           0        0.375706    1.263168   -0.018720
      3          6           0        1.019973   -0.021367   -0.000312
      4          6           0        0.091983   -1.043176    0.015228
      5         16           0       -1.472912   -0.458888    0.007657
      6          1           0       -1.703371    1.969544   -0.027771
      7          1           0        0.931260    2.202568   -0.032801
      8          6           0        2.479963   -0.184016    0.001072
      9          1           0        0.239035   -1.634042    0.895088
     10          1           0        0.237941   -1.659545   -0.847144
     11          1           0        2.916767   -1.098097   -0.343250
     12          1           0        3.106580    0.611596    0.346401
 ---------------------------------------------------------------------
 Rotational constants (GHZ):           6.9614543           2.6175041           1.9281203
 Standard basis: VSTO-6G (5D, 7F)
 There are    30 symmetry adapted cartesian basis functions of A   symmetry.
 There are    30 symmetry adapted basis functions of A   symmetry.
    30 basis functions,   180 primitive gaussians,    30 cartesian basis functions
    16 alpha electrons       16 beta electrons
       nuclear repulsion energy       129.4555701442 Hartrees.



 Warning!  S  atom    5 may be hypervalent but has no d functions.



 Integral buffers will be    131072 words long.
 Regular integral format.
 Two-electron integral symmetry is turned off.
 Do NDO integrals.
 One-electron integrals computed using PRISM.
 NBasis=    30 RedAO= F EigKep=  0.00D+00  NBF=    30
 NBsUse=    30 1.00D-04 EigRej=  0.00D+00 NBFU=    30
 Simple Huckel Guess.
 Keep J ints in memory in canonical form, NReq=861564.
 Overlap will be assumed to be unity.
 Requested convergence on RMS density matrix=1.00D-08 within 128 cycles.
 Requested convergence on MAX density matrix=1.00D-06.
 Requested convergence on             energy=1.00D-06.
 No special actions if energy rises.
 SCF Done:  E(RAM1) =  0.103527205402     A.U. after   14 cycles
            NFock= 13  Conv=0.52D-08     -V/T= 1.0020

 **********************************************************************

            Population analysis using the SCF Density.

 **********************************************************************

 Orbital symmetries:
       Occupied  (A) (A) (A) (A) (A) (A) (A) (A) (A) (A) (A) (A)
                 (A) (A) (A) (A)
       Virtual   (A) (A) (A) (A) (A) (A) (A) (A) (A) (A) (A) (A)
                 (A) (A)
 The electronic state is 1-A.
 Alpha  occ. eigenvalues --   -1.43206  -1.15847  -1.06075  -0.87232  -0.73791
 Alpha  occ. eigenvalues --   -0.68223  -0.59958  -0.59411  -0.52723  -0.50523
 Alpha  occ. eigenvalues --   -0.49399  -0.47008  -0.43188  -0.42459  -0.36782
 Alpha  occ. eigenvalues --   -0.28492
 Alpha virt. eigenvalues --   -0.01255   0.02988   0.04601   0.05906   0.14091
 Alpha virt. eigenvalues --    0.14481   0.14618   0.16187   0.16672   0.17358
 Alpha virt. eigenvalues --    0.17827   0.18574   0.19861   0.20371
     Molecular Orbital Coefficients:
                           1         2         3         4         5
                           O         O         O         O         O
     Eigenvalues --    -1.43206  -1.15847  -1.06075  -0.87232  -0.73791
   1 1   C  1S          0.31832   0.54729  -0.04667   0.42925   0.05669
   2        1PX         0.12372   0.08885   0.01757  -0.23722  -0.22584
   3        1PY        -0.05888   0.00951   0.05895  -0.06338  -0.21080
   4        1PZ         0.00083  -0.00015  -0.00080   0.00139   0.00257
   5 2   C  1S          0.42238   0.38861   0.16212  -0.39013  -0.28517
   6        1PX        -0.03945  -0.19085   0.11075  -0.22352   0.05584
   7        1PY        -0.13235   0.04667   0.00112   0.05991  -0.31242
   8        1PZ         0.00226  -0.00059   0.00068  -0.00156   0.00407
   9 3   C  1S          0.51952  -0.22370   0.22421  -0.21760   0.38690
  10        1PX        -0.10384  -0.09057   0.29095   0.14849  -0.06918
  11        1PY        -0.00453   0.19802   0.14497  -0.22526  -0.07890
  12        1PZ        -0.00008  -0.00127  -0.00074  -0.00001  -0.00058
  13 4   C  1S          0.44737  -0.36292  -0.45249   0.09043  -0.16633
  14        1PX         0.04780  -0.07080   0.11716  -0.05250   0.24912
  15        1PY         0.12997   0.03773   0.02450  -0.06970   0.30870
  16        1PZ        -0.00242   0.00029  -0.00070  -0.00059  -0.00444
  17 5   S  1S          0.13224   0.04930  -0.16659   0.24557   0.02579
  18        1PX         0.20054  -0.04405  -0.19477   0.03966  -0.09305
  19        1PY         0.06546   0.23963   0.06040   0.20648   0.30380
  20        1PZ        -0.00111  -0.00316  -0.00067  -0.00328  -0.00438
  21 6   H  1S          0.07309   0.19286  -0.00200   0.23671   0.01963
  22 7   H  1S          0.10901   0.12511   0.09457  -0.19520  -0.27250
  23 8   C  1S          0.20981  -0.27864   0.57932   0.34994  -0.18683
  24        1PX        -0.09971   0.06422  -0.05162   0.11014  -0.23433
  25        1PY         0.00815   0.02655   0.04100  -0.07057  -0.00380
  26        1PZ        -0.00016   0.00140   0.00181  -0.00485  -0.00403
  27 9   H  1S          0.14254  -0.15760  -0.17275   0.05342  -0.16272
  28 10  H  1S          0.14285  -0.15851  -0.17176   0.05603  -0.16504
  29 11  H  1S          0.06592  -0.11313   0.21160   0.21163  -0.14823
  30 12  H  1S          0.06380  -0.08589   0.24104   0.15730  -0.17807
                           6         7         8         9        10
                           O         O         O         O         O
     Eigenvalues --    -0.68223  -0.59958  -0.59411  -0.52723  -0.50523
   1 1   C  1S         -0.14543   0.02031  -0.02225   0.06999   0.08550
   2        1PX         0.05197  -0.17945   0.36229  -0.07473   0.37413
   3        1PY        -0.38090   0.03972  -0.04884   0.12453  -0.11709
   4        1PZ         0.00749   0.16735   0.08665  -0.02395   0.00136
   5 2   C  1S          0.00390  -0.00528  -0.01096  -0.08694  -0.02654
   6        1PX         0.11253   0.16073  -0.34928  -0.02141  -0.35377
   7        1PY        -0.19084   0.06961  -0.15726  -0.27867  -0.14591
   8        1PZ         0.00678   0.16903   0.08492   0.00386   0.00188
   9 3   C  1S         -0.08313   0.03987  -0.07986   0.00830   0.02563
  10        1PX        -0.06332   0.12899  -0.27226  -0.10956   0.43773
  11        1PY         0.27189   0.07315  -0.14126   0.22112   0.05989
  12        1PZ         0.00658   0.29749   0.13891   0.02526   0.00148
  13 4   C  1S         -0.07001   0.02031  -0.02449   0.05393  -0.07700
  14        1PX        -0.41446  -0.04372   0.11470  -0.04709  -0.11129
  15        1PY         0.17107  -0.09240   0.19432  -0.08909  -0.32076
  16        1PZ         0.00489   0.57494   0.28734  -0.09060   0.00099
  17 5   S  1S          0.50323   0.13322  -0.33641  -0.32468   0.01480
  18        1PX         0.22087  -0.05121   0.10362   0.06695   0.03171
  19        1PY         0.00095   0.00054   0.01397  -0.02689  -0.07207
  20        1PZ         0.00328   0.28932   0.14805  -0.05653  -0.00074
  21 6   H  1S         -0.27523   0.10857  -0.19678   0.15883  -0.21194
  22 7   H  1S         -0.06085   0.09334  -0.22232  -0.23339  -0.26464
  23 8   C  1S          0.09699  -0.03503   0.07422   0.00812   0.02067
  24        1PX         0.15507  -0.11897   0.26445   0.17600  -0.42030
  25        1PY         0.10444   0.12901  -0.15992   0.50298   0.06592
  26        1PZ         0.02100   0.14430   0.02603   0.18469   0.00438
  27 9   H  1S         -0.13647   0.37377   0.09159   0.01050   0.09050
  28 10  H  1S         -0.14348  -0.28344  -0.24271   0.12409   0.09694
  29 11  H  1S          0.02611  -0.16298   0.20667  -0.31931  -0.17393
  30 12  H  1S          0.15752   0.03163   0.06779   0.41923  -0.15540
                          11        12        13        14        15
                           O         O         O         O         O
     Eigenvalues --    -0.49399  -0.47008  -0.43188  -0.42459  -0.36782
   1 1   C  1S          0.01779   0.03669  -0.00328   0.04085   0.00034
   2        1PX         0.01710  -0.18634  -0.00106  -0.13508   0.02463
   3        1PY         0.47874   0.06356   0.03686  -0.22342   0.00876
   4        1PZ        -0.00625  -0.01705   0.60470   0.07237   0.18768
   5 2   C  1S         -0.09483   0.03502   0.01286  -0.06205  -0.01892
   6        1PX        -0.12405   0.17349   0.00211   0.15313  -0.03382
   7        1PY         0.00038  -0.41027  -0.03776   0.17195   0.03300
   8        1PZ        -0.00247  -0.03372   0.52784   0.04655  -0.19773
   9 3   C  1S          0.11402   0.01757   0.01007  -0.06857  -0.00018
  10        1PX         0.06609  -0.07059  -0.02290   0.18143  -0.00238
  11        1PY        -0.04662   0.43221   0.03084   0.00092  -0.03248
  12        1PZ        -0.00811  -0.07756   0.17705  -0.00485  -0.56129
  13 4   C  1S         -0.02379  -0.02292  -0.01148   0.05007   0.01613
  14        1PX        -0.34215  -0.16789   0.00725  -0.26426   0.04133
  15        1PY         0.36063  -0.28027  -0.03304   0.08614   0.02813
  16        1PZ         0.00593   0.07722  -0.30811  -0.02422   0.02460
  17 5   S  1S          0.04843  -0.14652   0.04819  -0.53393   0.01783
  18        1PX         0.22506  -0.00702  -0.05455   0.55943  -0.02371
  19        1PY        -0.43374  -0.04526  -0.02954   0.28530   0.00999
  20        1PZ         0.01234   0.04136   0.29585   0.04369   0.58880
  21 6   H  1S          0.29380   0.17745   0.01688  -0.03870  -0.01416
  22 7   H  1S         -0.11534  -0.20987  -0.02877   0.16967   0.00440
  23 8   C  1S          0.02686  -0.01271  -0.00548   0.02640   0.00083
  24        1PX        -0.16223   0.07034   0.01034  -0.14900   0.02627
  25        1PY        -0.03889  -0.31846  -0.07817  -0.02613   0.22999
  26        1PZ        -0.02623  -0.21121   0.08676  -0.03213  -0.43711
  27 9   H  1S         -0.21481   0.16653  -0.22737  -0.05622   0.02749
  28 10  H  1S         -0.23007   0.06944   0.24627  -0.01944  -0.03341
  29 11  H  1S         -0.01169   0.32162   0.04300  -0.01114  -0.06539
  30 12  H  1S         -0.09531  -0.24401  -0.02915  -0.08937   0.06519
                          16        17        18        19        20
                           O         V         V         V         V
     Eigenvalues --    -0.28492  -0.01255   0.02988   0.04601   0.05906
   1 1   C  1S         -0.00155   0.00181  -0.13749  -0.30171  -0.03572
   2        1PX        -0.01293  -0.01288   0.10860   0.15422   0.00905
   3        1PY        -0.00918  -0.00491   0.24374   0.46208   0.03480
   4        1PZ        -0.29011   0.52188  -0.00465   0.04438  -0.44570
   5 2   C  1S          0.01672   0.01964  -0.00194   0.02760   0.02023
   6        1PX         0.01821   0.01980   0.08598  -0.06652   0.00352
   7        1PY        -0.03033  -0.03335  -0.02523   0.06995  -0.00323
   8        1PZ        -0.41400  -0.33203   0.00218  -0.06854   0.59408
   9 3   C  1S          0.00093   0.00091  -0.00042  -0.04423  -0.00424
  10        1PX        -0.00197  -0.00297   0.04963   0.01845  -0.00106
  11        1PY         0.00390  -0.01067   0.02968   0.14195  -0.00579
  12        1PZ         0.23484  -0.42937  -0.00288   0.03969  -0.50304
  13 4   C  1S         -0.01451  -0.01754  -0.23375   0.15687   0.00609
  14        1PX        -0.02279  -0.02017   0.49289  -0.21556  -0.04186
  15        1PY        -0.02105  -0.02530  -0.21562   0.14687  -0.00568
  16        1PZ        -0.12292   0.00452   0.00216   0.00209  -0.06440
  17 5   S  1S         -0.00427  -0.00382   0.28202   0.09162   0.00774
  18        1PX         0.01009   0.00815   0.66075  -0.14088  -0.01288
  19        1PY         0.00255  -0.01901   0.10728   0.68801   0.07074
  20        1PZ         0.61698  -0.21039  -0.00128  -0.02620   0.14585
  21 6   H  1S          0.00784   0.00844   0.10273  -0.01994   0.00511
  22 7   H  1S         -0.00125  -0.00125  -0.06666  -0.13327  -0.01579
  23 8   C  1S         -0.00043   0.00041  -0.05864   0.04073   0.00411
  24        1PX        -0.01949  -0.02108   0.08713  -0.05255  -0.02230
  25        1PY        -0.17686  -0.20687  -0.00652   0.02157  -0.14267
  26        1PZ         0.45374   0.55022  -0.00029  -0.00096   0.32871
  27 9   H  1S         -0.16213   0.13388   0.00704   0.06458   0.12163
  28 10  H  1S          0.16165  -0.13715   0.00583   0.08148  -0.11305
  29 11  H  1S          0.01420  -0.03191   0.01474   0.01352  -0.04038
  30 12  H  1S         -0.01401   0.03078   0.01983  -0.04391   0.03793
                          21        22        23        24        25
                           V         V         V         V         V
     Eigenvalues --     0.14091   0.14481   0.14618   0.16187   0.16672
   1 1   C  1S          0.20953   0.21827   0.05080  -0.17318   0.04237
   2        1PX        -0.01523  -0.08085  -0.01422   0.30788   0.31282
   3        1PY         0.04791   0.24508   0.03280  -0.19079  -0.13710
   4        1PZ        -0.00805  -0.00409  -0.00928   0.00314   0.00120
   5 2   C  1S         -0.16028  -0.26739  -0.04559  -0.30514   0.04665
   6        1PX         0.01937  -0.10483  -0.00548  -0.15103   0.32059
   7        1PY         0.23140   0.18975   0.04931  -0.11042   0.10535
   8        1PZ        -0.00023  -0.00794   0.05684   0.00015  -0.00000
   9 3   C  1S         -0.07472   0.48144   0.03430   0.17164   0.06561
  10        1PX         0.12666  -0.07825   0.00699  -0.05721   0.44611
  11        1PY         0.44455   0.03426   0.06374  -0.00405  -0.04545
  12        1PZ        -0.00621   0.01254  -0.20068   0.00454  -0.00881
  13 4   C  1S         -0.06128  -0.11215  -0.04544  -0.30126   0.19511
  14        1PX         0.23927  -0.20872   0.00751  -0.15799   0.01374
  15        1PY         0.48417  -0.29309   0.07150   0.10676   0.06157
  16        1PZ        -0.11314  -0.05477   0.66245  -0.01594   0.01126
  17 5   S  1S         -0.00753   0.00298   0.00065   0.01952  -0.03619
  18        1PX         0.01236   0.03235   0.00818  -0.01241  -0.10167
  19        1PY        -0.15581   0.04340  -0.02141   0.04234   0.01147
  20        1PZ         0.01839   0.00628  -0.07658   0.00086  -0.00084
  21 6   H  1S         -0.22606  -0.42420  -0.07578   0.43787   0.22695
  22 7   H  1S         -0.07076   0.12764   0.00146   0.41429  -0.27519
  23 8   C  1S         -0.00090  -0.28404  -0.02757  -0.11752  -0.41876
  24        1PX         0.03678   0.13502   0.00712  -0.00783   0.16376
  25        1PY         0.15154   0.00785  -0.03962  -0.00293   0.03963
  26        1PZ         0.10513   0.00727   0.08271  -0.00383   0.03032
  27 9   H  1S          0.36310  -0.00956  -0.42063   0.28621  -0.11592
  28 10  H  1S          0.20356  -0.10001   0.54550   0.26353  -0.09937
  29 11  H  1S          0.15476   0.21325   0.00826   0.09510   0.31941
  30 12  H  1S         -0.18123   0.17057   0.02692   0.10273   0.22101
                          26        27        28        29        30
                           V         V         V         V         V
     Eigenvalues --     0.17358   0.17827   0.18574   0.19861   0.20371
   1 1   C  1S         -0.07137  -0.26119  -0.15329  -0.13549  -0.13999
   2        1PX        -0.26217  -0.26833  -0.02950  -0.33495  -0.11925
   3        1PY        -0.00772  -0.17710  -0.20011   0.08671  -0.09894
   4        1PZ         0.00602   0.00081   0.00112  -0.00145   0.00345
   5 2   C  1S          0.32758   0.16780   0.09449   0.19749  -0.08924
   6        1PX        -0.01937  -0.37447  -0.13072  -0.30019  -0.37835
   7        1PY         0.11281   0.21677   0.38993  -0.41141   0.09947
   8        1PZ        -0.01547   0.00402  -0.00091   0.01274  -0.01084
   9 3   C  1S          0.04493  -0.02774   0.34112  -0.01743   0.07269
  10        1PX         0.04696  -0.20701   0.01060   0.45424   0.22254
  11        1PY        -0.22148   0.13955   0.00045  -0.20760   0.44980
  12        1PZ         0.04682  -0.02950  -0.01587  -0.01734   0.02633
  13 4   C  1S         -0.32095   0.03555  -0.10225   0.01426   0.25858
  14        1PX        -0.14575   0.06788  -0.12299  -0.00073   0.19178
  15        1PY         0.17191  -0.08767  -0.11423   0.12148   0.04227
  16        1PZ        -0.03908   0.01787   0.01181   0.00746  -0.01216
  17 5   S  1S          0.00564   0.00572  -0.00917   0.00666  -0.00790
  18        1PX         0.05676   0.04799   0.00849   0.02343  -0.01264
  19        1PY        -0.03605  -0.02156  -0.00024   0.01973  -0.01083
  20        1PZ         0.00271  -0.00108  -0.00080  -0.00125   0.00133
  21 6   H  1S         -0.08016   0.15675   0.20551  -0.11512   0.08499
  22 7   H  1S         -0.33214  -0.12652  -0.28130   0.25000   0.13694
  23 8   C  1S         -0.14692  -0.13383   0.15604  -0.15170  -0.06731
  24        1PX        -0.05912  -0.37671   0.47748   0.31999   0.11062
  25        1PY        -0.29512   0.28721   0.10433   0.19227  -0.42536
  26        1PZ        -0.15302   0.10884   0.06455   0.07964  -0.13281
  27 9   H  1S          0.31286  -0.07828   0.01445   0.03172  -0.13602
  28 10  H  1S          0.26581  -0.06137   0.02660   0.04146  -0.14316
  29 11  H  1S         -0.13110   0.47000  -0.18409   0.14874  -0.28532
  30 12  H  1S          0.38988   0.08278  -0.42227  -0.16742   0.26421
     Density Matrix:
                           1         2         3         4         5
   1 1   C  1S          1.25622
   2        1PX        -0.06392   0.99308
   3        1PY         0.00432  -0.02734   1.03685
   4        1PZ         0.00105   0.00848   0.00408   1.05354
   5 2   C  1S          0.28829   0.47974   0.07039  -0.01199   1.22505
   6        1PX        -0.48333  -0.63196  -0.10838  -0.00841   0.04476
   7        1PY        -0.03157  -0.02907   0.14150   0.02766   0.06032
   8        1PZ         0.00076   0.00154   0.01437   0.88351  -0.00425
   9 3   C  1S         -0.04342  -0.02190   0.03859  -0.00048   0.27311
  10        1PX         0.03468   0.00253  -0.01803   0.00132  -0.18081
  11        1PY        -0.00073  -0.07159  -0.05173   0.00114   0.42181
  12        1PZ        -0.00231  -0.01227  -0.00541  -0.00824   0.01879
  13 4   C  1S          0.00693  -0.04005  -0.01384   0.00860  -0.03677
  14        1PX        -0.03281   0.02011  -0.00533   0.01128   0.01483
  15        1PY        -0.03296  -0.00607   0.03290   0.01060  -0.04538
  16        1PZ         0.00078   0.00137  -0.00047  -0.05168  -0.00135
  17 5   S  1S          0.14558  -0.07080  -0.23026   0.00527   0.00248
  18        1PX         0.11850   0.04617  -0.22642  -0.00102  -0.03195
  19        1PY         0.49782  -0.28872  -0.69274   0.02059  -0.02243
  20        1PZ        -0.00767  -0.00003   0.01272   0.35080   0.00615
  21 6   H  1S          0.56264  -0.50793   0.60526  -0.01402  -0.03751
  22 7   H  1S         -0.05293  -0.06708   0.00471   0.00104   0.57093
  23 8   C  1S          0.02770   0.03039  -0.00212  -0.00037  -0.03042
  24        1PX        -0.04209  -0.04158   0.00233   0.00949   0.03784
  25        1PY         0.00740   0.00669   0.00654   0.09481  -0.01826
  26        1PZ         0.00050   0.00237  -0.00672  -0.27529   0.00147
  27 9   H  1S          0.03152  -0.01467  -0.04488  -0.04317   0.02646
  28 10  H  1S          0.03102  -0.02079  -0.04709   0.04432   0.03659
  29 11  H  1S         -0.01268  -0.02220  -0.00469   0.00290   0.04812
  30 12  H  1S         -0.00480   0.00545   0.00802  -0.00262  -0.01272
                           6         7         8         9        10
   6        1PX         0.91970
   7        1PY         0.04237   0.97431
   8        1PZ         0.00009   0.00404   1.05658
   9 3   C  1S          0.22285  -0.41417   0.00750   1.20196
  10        1PX        -0.03984   0.26385  -0.00397   0.01711   0.94332
  11        1PY         0.34459  -0.50664   0.01970   0.00369  -0.00934
  12        1PZ         0.01910  -0.02173   0.34369   0.00094  -0.00232
  13 4   C  1S          0.01567   0.02993   0.00193   0.25700  -0.27363
  14        1PX        -0.06410   0.04398  -0.00047   0.34253  -0.20519
  15        1PY        -0.01293   0.03741   0.00207   0.37345  -0.37562
  16        1PZ        -0.00146   0.00204   0.00179  -0.00751   0.00800
  17 5   S  1S         -0.00607   0.02588  -0.00067   0.00986   0.00501
  18        1PX        -0.01990   0.03495  -0.00138  -0.02987   0.02944
  19        1PY         0.07972   0.00909  -0.00147  -0.01359  -0.01347
  20        1PZ         0.00394  -0.01328  -0.30763   0.00108  -0.00174
  21 6   H  1S          0.04826   0.00876  -0.00059   0.05745  -0.03503
  22 7   H  1S          0.39756   0.67637  -0.01152  -0.04811   0.03902
  23 8   C  1S         -0.01850   0.02265  -0.00090   0.27795   0.44353
  24        1PX         0.01485  -0.04942   0.00259  -0.49479  -0.64265
  25        1PY         0.00676   0.00727   0.01445   0.05449   0.08508
  26        1PZ        -0.00663   0.00110  -0.04495  -0.00009  -0.00528
  27 9   H  1S          0.01471  -0.02902   0.00753  -0.00564   0.01617
  28 10  H  1S          0.02436  -0.04342  -0.00459  -0.00481   0.01443
  29 11  H  1S          0.03574  -0.05467   0.01293  -0.04630  -0.07962
  30 12  H  1S         -0.01222   0.01718  -0.01057  -0.04764  -0.07219
                          11        12        13        14        15
  11        1PY         0.91986
  12        1PZ         0.00150   1.03226
  13 4   C  1S         -0.32640  -0.01696   1.18279
  14        1PX        -0.42462  -0.02297  -0.04219   1.00933
  15        1PY        -0.32942  -0.02107  -0.03941  -0.03081   1.04761
  16        1PZ         0.01114   0.21112   0.00349   0.00330   0.00304
  17 5   S  1S         -0.02868  -0.00170   0.13380  -0.22436   0.09986
  18        1PX         0.01006   0.00923   0.43588  -0.68950   0.33381
  19        1PY        -0.05363  -0.00760  -0.17413   0.29861   0.01761
  20        1PZ        -0.00259  -0.06301  -0.00299  -0.01081  -0.00621
  21 6   H  1S          0.06000   0.00681   0.03879  -0.07160   0.03307
  22 7   H  1S         -0.05704  -0.00269   0.04821   0.03148   0.05414
  23 8   C  1S         -0.05357  -0.00025  -0.02770  -0.02830  -0.01696
  24        1PX         0.09286  -0.02925   0.04372   0.02981   0.05196
  25        1PY         0.11306  -0.25946   0.01014  -0.01114   0.00295
  26        1PZ        -0.03163   0.87073  -0.00299   0.00658  -0.00223
  27 9   H  1S          0.00469   0.03834   0.48684   0.11627  -0.46588
  28 10  H  1S          0.00257  -0.03680   0.47666   0.10036  -0.50146
  29 11  H  1S          0.00003  -0.01001  -0.00967  -0.01491  -0.01195
  30 12  H  1S          0.02210   0.01067   0.04397   0.04681   0.04825
                          16        17        18        19        20
  16        1PZ         1.07722
  17 5   S  1S         -0.00122   1.81997
  18        1PX        -0.00473  -0.35505   1.05053
  19        1PY         0.00230  -0.19100   0.06396   0.95790
  20        1PZ         0.12749   0.00191   0.00164   0.00977   1.85504
  21 6   H  1S         -0.00109  -0.04999  -0.05199  -0.06670   0.00354
  22 7   H  1S         -0.00093   0.02320   0.04432   0.10159  -0.00168
  23 8   C  1S          0.00175   0.00855   0.05213  -0.01303   0.00039
  24        1PX         0.00239  -0.01622  -0.08428   0.02242  -0.00578
  25        1PY         0.02107  -0.00170   0.00317   0.00257  -0.05198
  26        1PZ        -0.07022   0.00174   0.00000  -0.00123   0.14607
  27 9   H  1S          0.68742  -0.03509  -0.04127  -0.01311  -0.05549
  28 10  H  1S         -0.67244  -0.03667  -0.03687  -0.01535   0.05521
  29 11  H  1S          0.00638  -0.00372  -0.00792  -0.00391  -0.00507
  30 12  H  1S         -0.00857  -0.00196  -0.02811   0.01188   0.00474
                          21        22        23        24        25
  21 6   H  1S          0.83043
  22 7   H  1S         -0.01650   0.84433
  23 8   C  1S         -0.00816  -0.00685   1.26577
  24        1PX         0.01261   0.00793   0.07194   0.90834
  25        1PY        -0.00277  -0.00065  -0.00745   0.01550   1.02360
  26        1PZ        -0.00107   0.00286   0.00057  -0.00237  -0.01629
  27 9   H  1S         -0.00892  -0.00603  -0.00555   0.01494   0.05374
  28 10  H  1S         -0.00549  -0.00723  -0.00587   0.00259  -0.05105
  29 11  H  1S          0.01238   0.00069   0.56418   0.30582  -0.70834
  30 12  H  1S         -0.00350   0.01317   0.56614   0.45143   0.62302
                          26        27        28        29        30
  26        1PZ         1.01384
  27 9   H  1S         -0.15482   0.87024
  28 10  H  1S          0.14852  -0.02938   0.87213
  29 11  H  1S         -0.21209   0.00855   0.00689   0.88175
  30 12  H  1S          0.21234   0.00158   0.00714  -0.10267   0.87644
    Full Mulliken population analysis:
                           1         2         3         4         5
   1 1   C  1S          1.25622
   2        1PX         0.00000   0.99308
   3        1PY         0.00000   0.00000   1.03685
   4        1PZ         0.00000   0.00000   0.00000   1.05354
   5 2   C  1S          0.00000   0.00000   0.00000   0.00000   1.22505
   6        1PX         0.00000   0.00000   0.00000   0.00000   0.00000
   7        1PY         0.00000   0.00000   0.00000   0.00000   0.00000
   8        1PZ         0.00000   0.00000   0.00000   0.00000   0.00000
   9 3   C  1S          0.00000   0.00000   0.00000   0.00000   0.00000
  10        1PX         0.00000   0.00000   0.00000   0.00000   0.00000
  11        1PY         0.00000   0.00000   0.00000   0.00000   0.00000
  12        1PZ         0.00000   0.00000   0.00000   0.00000   0.00000
  13 4   C  1S          0.00000   0.00000   0.00000   0.00000   0.00000
  14        1PX         0.00000   0.00000   0.00000   0.00000   0.00000
  15        1PY         0.00000   0.00000   0.00000   0.00000   0.00000
  16        1PZ         0.00000   0.00000   0.00000   0.00000   0.00000
  17 5   S  1S          0.00000   0.00000   0.00000   0.00000   0.00000
  18        1PX         0.00000   0.00000   0.00000   0.00000   0.00000
  19        1PY         0.00000   0.00000   0.00000   0.00000   0.00000
  20        1PZ         0.00000   0.00000   0.00000   0.00000   0.00000
  21 6   H  1S          0.00000   0.00000   0.00000   0.00000   0.00000
  22 7   H  1S          0.00000   0.00000   0.00000   0.00000   0.00000
  23 8   C  1S          0.00000   0.00000   0.00000   0.00000   0.00000
  24        1PX         0.00000   0.00000   0.00000   0.00000   0.00000
  25        1PY         0.00000   0.00000   0.00000   0.00000   0.00000
  26        1PZ         0.00000   0.00000   0.00000   0.00000   0.00000
  27 9   H  1S          0.00000   0.00000   0.00000   0.00000   0.00000
  28 10  H  1S          0.00000   0.00000   0.00000   0.00000   0.00000
  29 11  H  1S          0.00000   0.00000   0.00000   0.00000   0.00000
  30 12  H  1S          0.00000   0.00000   0.00000   0.00000   0.00000
                           6         7         8         9        10
   6        1PX         0.91970
   7        1PY         0.00000   0.97431
   8        1PZ         0.00000   0.00000   1.05658
   9 3   C  1S          0.00000   0.00000   0.00000   1.20196
  10        1PX         0.00000   0.00000   0.00000   0.00000   0.94332
  11        1PY         0.00000   0.00000   0.00000   0.00000   0.00000
  12        1PZ         0.00000   0.00000   0.00000   0.00000   0.00000
  13 4   C  1S          0.00000   0.00000   0.00000   0.00000   0.00000
  14        1PX         0.00000   0.00000   0.00000   0.00000   0.00000
  15        1PY         0.00000   0.00000   0.00000   0.00000   0.00000
  16        1PZ         0.00000   0.00000   0.00000   0.00000   0.00000
  17 5   S  1S          0.00000   0.00000   0.00000   0.00000   0.00000
  18        1PX         0.00000   0.00000   0.00000   0.00000   0.00000
  19        1PY         0.00000   0.00000   0.00000   0.00000   0.00000
  20        1PZ         0.00000   0.00000   0.00000   0.00000   0.00000
  21 6   H  1S          0.00000   0.00000   0.00000   0.00000   0.00000
  22 7   H  1S          0.00000   0.00000   0.00000   0.00000   0.00000
  23 8   C  1S          0.00000   0.00000   0.00000   0.00000   0.00000
  24        1PX         0.00000   0.00000   0.00000   0.00000   0.00000
  25        1PY         0.00000   0.00000   0.00000   0.00000   0.00000
  26        1PZ         0.00000   0.00000   0.00000   0.00000   0.00000
  27 9   H  1S          0.00000   0.00000   0.00000   0.00000   0.00000
  28 10  H  1S          0.00000   0.00000   0.00000   0.00000   0.00000
  29 11  H  1S          0.00000   0.00000   0.00000   0.00000   0.00000
  30 12  H  1S          0.00000   0.00000   0.00000   0.00000   0.00000
                          11        12        13        14        15
  11        1PY         0.91986
  12        1PZ         0.00000   1.03226
  13 4   C  1S          0.00000   0.00000   1.18279
  14        1PX         0.00000   0.00000   0.00000   1.00933
  15        1PY         0.00000   0.00000   0.00000   0.00000   1.04761
  16        1PZ         0.00000   0.00000   0.00000   0.00000   0.00000
  17 5   S  1S          0.00000   0.00000   0.00000   0.00000   0.00000
  18        1PX         0.00000   0.00000   0.00000   0.00000   0.00000
  19        1PY         0.00000   0.00000   0.00000   0.00000   0.00000
  20        1PZ         0.00000   0.00000   0.00000   0.00000   0.00000
  21 6   H  1S          0.00000   0.00000   0.00000   0.00000   0.00000
  22 7   H  1S          0.00000   0.00000   0.00000   0.00000   0.00000
  23 8   C  1S          0.00000   0.00000   0.00000   0.00000   0.00000
  24        1PX         0.00000   0.00000   0.00000   0.00000   0.00000
  25        1PY         0.00000   0.00000   0.00000   0.00000   0.00000
  26        1PZ         0.00000   0.00000   0.00000   0.00000   0.00000
  27 9   H  1S          0.00000   0.00000   0.00000   0.00000   0.00000
  28 10  H  1S          0.00000   0.00000   0.00000   0.00000   0.00000
  29 11  H  1S          0.00000   0.00000   0.00000   0.00000   0.00000
  30 12  H  1S          0.00000   0.00000   0.00000   0.00000   0.00000
                          16        17        18        19        20
  16        1PZ         1.07722
  17 5   S  1S          0.00000   1.81997
  18        1PX         0.00000   0.00000   1.05053
  19        1PY         0.00000   0.00000   0.00000   0.95790
  20        1PZ         0.00000   0.00000   0.00000   0.00000   1.85504
  21 6   H  1S          0.00000   0.00000   0.00000   0.00000   0.00000
  22 7   H  1S          0.00000   0.00000   0.00000   0.00000   0.00000
  23 8   C  1S          0.00000   0.00000   0.00000   0.00000   0.00000
  24        1PX         0.00000   0.00000   0.00000   0.00000   0.00000
  25        1PY         0.00000   0.00000   0.00000   0.00000   0.00000
  26        1PZ         0.00000   0.00000   0.00000   0.00000   0.00000
  27 9   H  1S          0.00000   0.00000   0.00000   0.00000   0.00000
  28 10  H  1S          0.00000   0.00000   0.00000   0.00000   0.00000
  29 11  H  1S          0.00000   0.00000   0.00000   0.00000   0.00000
  30 12  H  1S          0.00000   0.00000   0.00000   0.00000   0.00000
                          21        22        23        24        25
  21 6   H  1S          0.83043
  22 7   H  1S          0.00000   0.84433
  23 8   C  1S          0.00000   0.00000   1.26577
  24        1PX         0.00000   0.00000   0.00000   0.90834
  25        1PY         0.00000   0.00000   0.00000   0.00000   1.02360
  26        1PZ         0.00000   0.00000   0.00000   0.00000   0.00000
  27 9   H  1S          0.00000   0.00000   0.00000   0.00000   0.00000
  28 10  H  1S          0.00000   0.00000   0.00000   0.00000   0.00000
  29 11  H  1S          0.00000   0.00000   0.00000   0.00000   0.00000
  30 12  H  1S          0.00000   0.00000   0.00000   0.00000   0.00000
                          26        27        28        29        30
  26        1PZ         1.01384
  27 9   H  1S          0.00000   0.87024
  28 10  H  1S          0.00000   0.00000   0.87213
  29 11  H  1S          0.00000   0.00000   0.00000   0.88175
  30 12  H  1S          0.00000   0.00000   0.00000   0.00000   0.87644
     Gross orbital populations:
                           1
   1 1   C  1S          1.25622
   2        1PX         0.99308
   3        1PY         1.03685
   4        1PZ         1.05354
   5 2   C  1S          1.22505
   6        1PX         0.91970
   7        1PY         0.97431
   8        1PZ         1.05658
   9 3   C  1S          1.20196
  10        1PX         0.94332
  11        1PY         0.91986
  12        1PZ         1.03226
  13 4   C  1S          1.18279
  14        1PX         1.00933
  15        1PY         1.04761
  16        1PZ         1.07722
  17 5   S  1S          1.81997
  18        1PX         1.05053
  19        1PY         0.95790
  20        1PZ         1.85504
  21 6   H  1S          0.83043
  22 7   H  1S          0.84433
  23 8   C  1S          1.26577
  24        1PX         0.90834
  25        1PY         1.02360
  26        1PZ         1.01384
  27 9   H  1S          0.87024
  28 10  H  1S          0.87213
  29 11  H  1S          0.88175
  30 12  H  1S          0.87644
          Condensed to atoms (all electrons):
               1          2          3          4          5          6
     1  C    4.339699   0.000000   0.000000   0.000000   0.000000   0.000000
     2  C    0.000000   4.175632   0.000000   0.000000   0.000000   0.000000
     3  C    0.000000   0.000000   4.097392   0.000000   0.000000   0.000000
     4  C    0.000000   0.000000   0.000000   4.316948   0.000000   0.000000
     5  S    0.000000   0.000000   0.000000   0.000000   5.683440   0.000000
     6  H    0.000000   0.000000   0.000000   0.000000   0.000000   0.830431
     7  H    0.000000   0.000000   0.000000   0.000000   0.000000   0.000000
     8  C    0.000000   0.000000   0.000000   0.000000   0.000000   0.000000
     9  H    0.000000   0.000000   0.000000   0.000000   0.000000   0.000000
    10  H    0.000000   0.000000   0.000000   0.000000   0.000000   0.000000
    11  H    0.000000   0.000000   0.000000   0.000000   0.000000   0.000000
    12  H    0.000000   0.000000   0.000000   0.000000   0.000000   0.000000
               7          8          9         10         11         12
     1  C    0.000000   0.000000   0.000000   0.000000   0.000000   0.000000
     2  C    0.000000   0.000000   0.000000   0.000000   0.000000   0.000000
     3  C    0.000000   0.000000   0.000000   0.000000   0.000000   0.000000
     4  C    0.000000   0.000000   0.000000   0.000000   0.000000   0.000000
     5  S    0.000000   0.000000   0.000000   0.000000   0.000000   0.000000
     6  H    0.000000   0.000000   0.000000   0.000000   0.000000   0.000000
     7  H    0.844333   0.000000   0.000000   0.000000   0.000000   0.000000
     8  C    0.000000   4.211561   0.000000   0.000000   0.000000   0.000000
     9  H    0.000000   0.000000   0.870243   0.000000   0.000000   0.000000
    10  H    0.000000   0.000000   0.000000   0.872132   0.000000   0.000000
    11  H    0.000000   0.000000   0.000000   0.000000   0.881747   0.000000
    12  H    0.000000   0.000000   0.000000   0.000000   0.000000   0.876442
 Mulliken charges:
               1
     1  C   -0.339699
     2  C   -0.175632
     3  C   -0.097392
     4  C   -0.316948
     5  S    0.316560
     6  H    0.169569
     7  H    0.155667
     8  C   -0.211561
     9  H    0.129757
    10  H    0.127868
    11  H    0.118253
    12  H    0.123558
 Sum of Mulliken charges =   0.00000
 Mulliken charges with hydrogens summed into heavy atoms:
               1
     1  C   -0.170130
     2  C   -0.019964
     3  C   -0.097392
     4  C   -0.059324
     5  S    0.316560
     8  C    0.030250
 Charge=              0.0000 electrons
 Dipole moment (field-independent basis, Debye):
    X=              0.5426    Y=             -0.1075    Z=              0.0144  Tot=              0.5534
 N-N= 1.294555701442D+02 E-N=-1.852589560375D+02  KE=-5.215875360439D+01
 Orbital energies and kinetic energies (alpha):
                                 1                 2
   1         O                -1.432063         -2.432490
   2         O                -1.158470         -2.112874
   3         O                -1.060752         -1.972978
   4         O                -0.872323         -1.809270
   5         O                -0.737915         -1.638692
   6         O                -0.682234         -1.677414
   7         O                -0.599581         -1.408905
   8         O                -0.594111         -1.491883
   9         O                -0.527228         -1.257319
  10         O                -0.505232         -1.358697
  11         O                -0.493988         -1.393308
  12         O                -0.470082         -1.261146
  13         O                -0.431876         -1.440435
  14         O                -0.424594         -1.728473
  15         O                -0.367822         -1.596278
  16         O                -0.284919         -1.499216
  17         V                -0.012546         -1.374840
  18         V                 0.029878         -1.495669
  19         V                 0.046009         -1.449187
  20         V                 0.059065         -1.336864
  21         V                 0.140909         -1.006362
  22         V                 0.144814         -1.071900
  23         V                 0.146180         -0.790075
  24         V                 0.161867         -0.768892
  25         V                 0.166716         -1.000841
  26         V                 0.173582         -0.844256
  27         V                 0.178268         -1.005881
  28         V                 0.185739         -0.954296
  29         V                 0.198613         -1.135730
  30         V                 0.203708         -1.050158
 Total kinetic energy from orbitals=-5.215875360439D+01
 Calling FoFJK, ICntrl=      2127 FMM=F ISym2X=0 I1Cent= 0 IOpClX= 0 NMat=1 NMatS=1 NMatT=0.
 ***** Axes restored to original set *****
 -------------------------------------------------------------------
 Center     Atomic                   Forces (Hartrees/Bohr)
 Number     Number              X              Y              Z
 -------------------------------------------------------------------
      1        6          -0.021947452    0.016987375   -0.000320210
      2        6           0.026065159    0.022486349   -0.008083130
      3        6          -0.208090735    0.066704983   -0.001166453
      4        6           0.020509411   -0.075722116    0.007648492
      5       16           0.065302263    0.017453498    0.000124483
      6        1           0.000568453    0.000496929    0.000794978
      7        1          -0.000250699    0.000088389    0.000248803
      8        6           0.140788866    0.014768228    0.000750496
      9        1          -0.005921078   -0.029990283   -0.033868016
     10        1          -0.004859855   -0.032060984    0.033784952
     11        1          -0.004786448   -0.015112865   -0.002508958
     12        1          -0.007377884    0.013900498    0.002594565
 -------------------------------------------------------------------
 Cartesian Forces:  Max     0.208090735 RMS     0.048700719

 GradGradGradGradGradGradGradGradGradGradGradGradGradGradGradGradGradGrad
 Berny optimization.
 FormGI is forming the generalized inverse of G from B-inverse, IUseBI=4.
 Internal  Forces:  Max     0.129336849 RMS     0.028160904
 Search for a local minimum.
 Step number   1 out of a maximum of   64
 All quantities printed in internal units (Hartrees-Bohrs-Radians)
 Mixed Optimization -- RFO/linear search
 Second derivative matrix not updated -- first step.
 ITU=  0
     Eigenvalues ---    0.01176   0.01176   0.01785   0.01949   0.02065
     Eigenvalues ---    0.02240   0.02305   0.06279   0.08549   0.11909
     Eigenvalues ---    0.12104   0.16000   0.16000   0.16000   0.16000
     Eigenvalues ---    0.22513   0.23593   0.25000   0.34643   0.35006
     Eigenvalues ---    0.35857   0.37230   0.37230   0.37230   0.37230
     Eigenvalues ---    0.37445   0.37670   0.39789   0.46271   0.49168
 RFO step:  Lambda=-9.04092671D-02 EMin= 1.17572023D-02
 Linear search not attempted -- first point.
 Maximum step size (   0.300) exceeded in Quadratic search.
    -- Step size scaled by   0.695
 Iteration  1 RMS(Cart)=  0.05877934 RMS(Int)=  0.00081270
 Iteration  2 RMS(Cart)=  0.00094942 RMS(Int)=  0.00026696
 Iteration  3 RMS(Cart)=  0.00000066 RMS(Int)=  0.00026696
 Variable       Old X    -DE/DX   Delta X   Delta X   Delta X     New X
                                 (Linear)    (Quad)   (Total)
    R1        2.59925  -0.00883   0.00000  -0.01645  -0.01694   2.58231
    R2        3.16090   0.02390   0.00000   0.02861   0.02841   3.18931
    R3        2.05666   0.00075   0.00000   0.00118   0.00118   2.05784
    R4        2.71585   0.02419   0.00000   0.03459   0.03441   2.75027
    R5        2.06258   0.00020   0.00000   0.00032   0.00032   2.06290
    R6        2.60858   0.11565   0.00000   0.14478   0.14514   2.75372
    R7        2.77605  -0.12934   0.00000  -0.20027  -0.20027   2.57578
    R8        3.15666   0.06327   0.00000   0.09548   0.09590   3.25256
    R9        2.02201   0.04530   0.00000   0.06807   0.06807   2.09007
   R10        2.02201   0.04625   0.00000   0.06950   0.06950   2.09150
   R11        2.02201   0.01394   0.00000   0.02095   0.02095   2.04296
   R12        2.02201   0.01374   0.00000   0.02064   0.02064   2.04265
    A1        1.94777   0.01830   0.00000   0.02167   0.02093   1.96870
    A2        2.19312  -0.00904   0.00000  -0.01054  -0.01017   2.18295
    A3        2.14230  -0.00926   0.00000  -0.01113  -0.01076   2.13154
    A4        1.94870   0.01019   0.00000   0.01223   0.01150   1.96020
    A5        2.19176  -0.00492   0.00000  -0.00562  -0.00526   2.18650
    A6        2.14272  -0.00527   0.00000  -0.00661  -0.00625   2.13648
    A7        1.93948  -0.00133   0.00000   0.00827   0.00839   1.94787
    A8        2.14660   0.00033   0.00000  -0.00483  -0.00489   2.14171
    A9        2.19711   0.00101   0.00000  -0.00344  -0.00350   2.19361
   A10        1.95069  -0.03681   0.00000  -0.06086  -0.05983   1.89086
   A11        1.90247   0.01140   0.00000   0.02151   0.02126   1.92373
   A12        1.90247   0.01360   0.00000   0.02922   0.02895   1.93143
   A13        1.90247   0.01030   0.00000   0.01513   0.01503   1.91751
   A14        1.90247   0.00936   0.00000   0.01261   0.01275   1.91522
   A15        1.90275  -0.00748   0.00000  -0.01717  -0.01751   1.88525
   A16        1.63814   0.00965   0.00000   0.01869   0.01900   1.65714
   A17        2.09440  -0.00019   0.00000  -0.00054  -0.00054   2.09386
   A18        2.09440  -0.00106   0.00000  -0.00296  -0.00296   2.09144
   A19        2.09440   0.00126   0.00000   0.00349   0.00349   2.09789
    D1       -0.00001   0.00066   0.00000   0.00364   0.00367   0.00366
    D2       -3.14157  -0.00005   0.00000  -0.00060  -0.00060   3.14102
    D3       -3.14158   0.00073   0.00000   0.00452   0.00453  -3.13704
    D4        0.00005   0.00002   0.00000   0.00028   0.00027   0.00031
    D5        0.00000  -0.00053   0.00000  -0.00264  -0.00265  -0.00265
    D6        3.14157  -0.00060   0.00000  -0.00349  -0.00349   3.13808
    D7        0.00001  -0.00048   0.00000  -0.00300  -0.00302  -0.00301
    D8        3.14153  -0.00049   0.00000  -0.00274  -0.00278   3.13875
    D9        3.14157   0.00020   0.00000   0.00110   0.00110  -3.14051
   D10       -0.00010   0.00020   0.00000   0.00136   0.00135   0.00125
   D11       -0.00001   0.00009   0.00000   0.00104   0.00106   0.00105
   D12       -2.10407   0.00301   0.00000   0.00647   0.00657  -2.09751
   D13        2.10406  -0.00254   0.00000  -0.00238  -0.00263   2.10143
   D14       -3.14152   0.00009   0.00000   0.00077   0.00080  -3.14072
   D15        1.03759   0.00301   0.00000   0.00620   0.00631   1.04391
   D16       -1.03746  -0.00253   0.00000  -0.00266  -0.00288  -1.04034
   D17       -2.74564  -0.00693   0.00000  -0.04732  -0.04731  -2.79295
   D18        0.39595  -0.00702   0.00000  -0.04796  -0.04795   0.34801
   D19        0.39587  -0.00693   0.00000  -0.04702  -0.04703   0.34884
   D20       -2.74572  -0.00703   0.00000  -0.04766  -0.04767  -2.79339
   D21        0.00000   0.00025   0.00000   0.00088   0.00083   0.00083
   D22        2.10407  -0.00203   0.00000  -0.00083  -0.00080   2.10326
   D23       -2.10406   0.00040   0.00000  -0.00538  -0.00556  -2.10962
         Item               Value     Threshold  Converged?
 Maximum Force            0.129337     0.000450     NO 
 RMS     Force            0.028161     0.000300     NO 
 Maximum Displacement     0.183338     0.001800     NO 
 RMS     Displacement     0.058898     0.001200     NO 
 Predicted change in Energy=-4.546374D-02
 GradGradGradGradGradGradGradGradGradGradGradGradGradGradGradGradGradGrad

                          Input orientation:                          
 ---------------------------------------------------------------------
 Center     Atomic      Atomic             Coordinates (Angstroms)
 Number     Number       Type             X           Y           Z
 ---------------------------------------------------------------------
      1          6           0        1.014066    1.144114   -0.002902
      2          6           0       -0.347058    1.265149   -0.007209
      3          6           0       -1.016687   -0.027009   -0.000289
      4          6           0       -0.060649   -1.126737    0.005439
      5         16           0        1.527634   -0.463550    0.003471
      6          1           0        1.716297    1.976403   -0.002610
      7          1           0       -0.896091    2.208669   -0.011156
      8          6           0       -2.373866   -0.153309    0.000327
      9          1           0       -0.203661   -1.762291   -0.888372
     10          1           0       -0.199858   -1.760576    0.902000
     11          1           0       -2.830040   -1.078021    0.325229
     12          1           0       -2.990909    0.672830   -0.323930
 ---------------------------------------------------------------------
                    Distance matrix (angstroms):
                    1          2          3          4          5
     1  C    0.000000
     2  C    1.366501   0.000000
     3  C    2.344247   1.455378   0.000000
     4  C    2.512339   2.409006   1.457203   0.000000
     5  S    1.687713   2.550095   2.581502   1.721182   0.000000
     6  H    1.088960   2.182507   3.388638   3.575903   2.447243
     7  H    2.186788   1.091642   2.238955   3.438484   3.607687
     8  C    3.627864   2.473870   1.363043   2.509693   3.913817
     9  H    3.273240   3.156328   2.112086   1.106020   2.340832
    10  H    3.275619   3.162806   2.118156   1.106775   2.339629
    11  H    4.452269   3.430184   2.121046   2.788218   4.412531
    12  H    4.045367   2.727839   2.119451   3.454468   4.670737
                    6          7          8          9         10
     6  H    0.000000
     7  H    2.622707   0.000000
     8  C    4.611412   2.786197   0.000000
     9  H    4.295189   4.125226   2.844011   0.000000
    10  H    4.295926   4.132009   2.850023   1.790377   0.000000
    11  H    5.486908   3.828269   1.081086   2.973032   2.777841
    12  H    4.894930   2.616275   1.080922   3.743951   3.900556
                   11         12
    11  H    0.000000
    12  H    1.874238   0.000000
 Stoichiometry    C5H6S
 Framework group  C1[X(C5H6S)]
 Deg. of freedom    30
 Full point group                 C1      NOp   1
 Largest Abelian subgroup         C1      NOp   1
 Largest concise Abelian subgroup C1      NOp   1
                         Standard orientation:                         
 ---------------------------------------------------------------------
 Center     Atomic      Atomic             Coordinates (Angstroms)
 Number     Number       Type             X           Y           Z
 ---------------------------------------------------------------------
      1          6           0       -0.948565    1.171541   -0.015593
      2          6           0        0.414496    1.268439   -0.014875
      3          6           0        1.061088   -0.035334   -0.000023
      4          6           0        0.085685   -1.117841    0.014438
      5         16           0       -1.490580   -0.426614    0.006586
      6          1           0       -1.635921    2.016041   -0.029614
      7          1           0        0.980185    2.201985   -0.027954
      8          6           0        2.415810   -0.185710    0.000085
      9          1           0        0.218647   -1.740195    0.919024
     10          1           0        0.212375   -1.769547   -0.871101
     11          1           0        2.855054   -1.123888   -0.309163
     12          1           0        3.047864    0.634854    0.309236
 ---------------------------------------------------------------------
 Rotational constants (GHZ):           6.6827379           2.6536314           1.9257176
 Standard basis: VSTO-6G (5D, 7F)
 There are    30 symmetry adapted cartesian basis functions of A   symmetry.
 There are    30 symmetry adapted basis functions of A   symmetry.
    30 basis functions,   180 primitive gaussians,    30 cartesian basis functions
    16 alpha electrons       16 beta electrons
       nuclear repulsion energy       128.9906262216 Hartrees.



 Warning!  S  atom    5 may be hypervalent but has no d functions.



 Integral buffers will be    131072 words long.
 Regular integral format.
 Two-electron integral symmetry is turned off.
 Do NDO integrals.
 One-electron integrals computed using PRISM.
 NBasis=    30 RedAO= F EigKep=  0.00D+00  NBF=    30
 NBsUse=    30 1.00D-04 EigRej=  0.00D+00 NBFU=    30
 Initial guess from the checkpoint file:  "meth_thiophene_isomer_opt.chk"
 B after Tr=    -0.000000   -0.000000    0.000000
         Rot=    0.999968    0.000148    0.000095    0.007975 Ang=   0.91 deg.
 Keep J ints in memory in canonical form, NReq=861564.
 Overlap will be assumed to be unity.
 Requested convergence on RMS density matrix=1.00D-08 within 128 cycles.
 Requested convergence on MAX density matrix=1.00D-06.
 Requested convergence on             energy=1.00D-06.
 No special actions if energy rises.
 SCF Done:  E(RAM1) =  0.627604043608E-01 A.U. after   12 cycles
            NFock= 11  Conv=0.82D-08     -V/T= 1.0012
 Calling FoFJK, ICntrl=      2127 FMM=F ISym2X=0 I1Cent= 0 IOpClX= 0 NMat=1 NMatS=1 NMatT=0.
 ***** Axes restored to original set *****
 -------------------------------------------------------------------
 Center     Atomic                   Forces (Hartrees/Bohr)
 Number     Number              X              Y              Z
 -------------------------------------------------------------------
      1        6          -0.019756464    0.006777659   -0.000357967
      2        6           0.025635066    0.003128533   -0.007566110
      3        6          -0.055310703    0.021971871   -0.000962248
      4        6          -0.007520300   -0.025245179    0.007663504
      5       16           0.032942867    0.010757465    0.000053891
      6        1           0.001685119   -0.000399089    0.000668178
      7        1          -0.001227352   -0.000630415    0.000193181
      8        6           0.043702139    0.000788911    0.000885302
      9        1          -0.001783972   -0.007270221   -0.008165157
     10        1          -0.000854284   -0.008409321    0.007657756
     11        1          -0.008072259   -0.009545573   -0.005229974
     12        1          -0.009439857    0.008075360    0.005159645
 -------------------------------------------------------------------
 Cartesian Forces:  Max     0.055310703 RMS     0.015978405

 GradGradGradGradGradGradGradGradGradGradGradGradGradGradGradGradGradGrad
 Berny optimization.
 Using GEDIIS/GDIIS optimizer.
 FormGI is forming the generalized inverse of G from B-inverse, IUseBI=4.
 Internal  Forces:  Max     0.031091401 RMS     0.008530029
 Search for a local minimum.
 Step number   2 out of a maximum of   64
 All quantities printed in internal units (Hartrees-Bohrs-Radians)
 Mixed Optimization -- RFO/linear search
 Update second derivatives using D2CorX and points    1    2
 DE= -4.08D-02 DEPred=-4.55D-02 R= 8.97D-01
 TightC=F SS=  1.41D+00  RLast= 3.15D-01 DXNew= 5.0454D-01 9.4448D-01
 Trust test= 8.97D-01 RLast= 3.15D-01 DXMaxT set to 5.05D-01
 ITU=  1  0
 Use linear search instead of GDIIS.
     Eigenvalues ---    0.01169   0.01176   0.01788   0.01947   0.02066
     Eigenvalues ---    0.02239   0.02305   0.06501   0.08533   0.11640
     Eigenvalues ---    0.11736   0.15944   0.16000   0.16000   0.16001
     Eigenvalues ---    0.22474   0.23833   0.24937   0.34643   0.34996
     Eigenvalues ---    0.35448   0.36971   0.37230   0.37230   0.37358
     Eigenvalues ---    0.37552   0.39302   0.42464   0.47053   0.57314
 RFO step:  Lambda=-1.08344628D-02 EMin= 1.16870117D-02
 Quartic linear search produced a step of  0.36195.
 Iteration  1 RMS(Cart)=  0.06712569 RMS(Int)=  0.02855786
 Iteration  2 RMS(Cart)=  0.03452141 RMS(Int)=  0.00153775
 Iteration  3 RMS(Cart)=  0.00159699 RMS(Int)=  0.00015310
 Iteration  4 RMS(Cart)=  0.00000268 RMS(Int)=  0.00015308
 Iteration  5 RMS(Cart)=  0.00000000 RMS(Int)=  0.00015308
 Variable       Old X    -DE/DX   Delta X   Delta X   Delta X     New X
                                 (Linear)    (Quad)   (Total)
    R1        2.58231  -0.01255  -0.00613  -0.02931  -0.03568   2.54663
    R2        3.18931   0.00604   0.01028   0.00004   0.01015   3.19946
    R3        2.05784   0.00078   0.00043   0.00223   0.00266   2.06049
    R4        2.75027   0.00939   0.01246   0.01028   0.02271   2.77297
    R5        2.06290   0.00007   0.00012   0.00008   0.00020   2.06310
    R6        2.75372   0.03062   0.05253   0.00834   0.06110   2.81482
    R7        2.57578  -0.02601  -0.07249   0.02163  -0.05086   2.52492
    R8        3.25256   0.03109   0.03471   0.05358   0.08847   3.34103
    R9        2.09007   0.01101   0.02464  -0.00053   0.02411   2.11418
   R10        2.09150   0.01113   0.02515  -0.00093   0.02422   2.11573
   R11        2.04296   0.01000   0.00758   0.02310   0.03068   2.07364
   R12        2.04265   0.01001   0.00747   0.02333   0.03080   2.07344
    A1        1.96870   0.00683   0.00758   0.00717   0.01431   1.98300
    A2        2.18295  -0.00182  -0.00368   0.00876   0.00529   2.18824
    A3        2.13154  -0.00501  -0.00389  -0.01593  -0.01961   2.11193
    A4        1.96020   0.00797   0.00416   0.02477   0.02859   1.98880
    A5        2.18650  -0.00256  -0.00191  -0.00156  -0.00335   2.18315
    A6        2.13648  -0.00541  -0.00226  -0.02326  -0.02540   2.11108
    A7        1.94787  -0.00439   0.00304  -0.02184  -0.01862   1.92924
    A8        2.14171   0.00592  -0.00177   0.03065   0.02879   2.17050
    A9        2.19361  -0.00154  -0.00127  -0.00881  -0.01017   2.18344
   A10        1.89086  -0.00953  -0.02165   0.00430  -0.01680   1.87406
   A11        1.92373   0.00235   0.00770  -0.00818  -0.00056   1.92318
   A12        1.93143   0.00401   0.01048   0.00426   0.01458   1.94600
   A13        1.91751   0.00309   0.00544   0.00275   0.00801   1.92552
   A14        1.91522   0.00245   0.00461  -0.00053   0.00422   1.91944
   A15        1.88525  -0.00221  -0.00634  -0.00260  -0.00906   1.87618
   A16        1.65714  -0.00088   0.00688  -0.01443  -0.00758   1.64956
   A17        2.09386   0.00329  -0.00019   0.02635   0.02615   2.12001
   A18        2.09144   0.00268  -0.00107   0.02338   0.02231   2.11375
   A19        2.09789  -0.00597   0.00126  -0.04972  -0.04846   2.04942
    D1        0.00366   0.00054   0.00133   0.01079   0.01228   0.01594
    D2        3.14102  -0.00003  -0.00022  -0.00270  -0.00294   3.13808
    D3       -3.13704   0.00061   0.00164   0.01519   0.01700  -3.12004
    D4        0.00031   0.00004   0.00010   0.00171   0.00177   0.00209
    D5       -0.00265  -0.00042  -0.00096  -0.00700  -0.00790  -0.01055
    D6        3.13808  -0.00048  -0.00126  -0.01125  -0.01237   3.12571
    D7       -0.00301  -0.00038  -0.00109  -0.00981  -0.01091  -0.01393
    D8        3.13875  -0.00039  -0.00100  -0.00821  -0.00927   3.12948
    D9       -3.14051   0.00017   0.00040   0.00318   0.00356  -3.13695
   D10        0.00125   0.00016   0.00049   0.00477   0.00520   0.00646
   D11        0.00105   0.00007   0.00038   0.00450   0.00477   0.00582
   D12       -2.09751   0.00079   0.00238   0.00338   0.00566  -2.09184
   D13        2.10143  -0.00051  -0.00095   0.00915   0.00801   2.10945
   D14       -3.14072   0.00008   0.00029   0.00286   0.00312  -3.13760
   D15        1.04391   0.00080   0.00229   0.00173   0.00401   1.04792
   D16       -1.04034  -0.00050  -0.00104   0.00750   0.00636  -1.03398
   D17       -2.79295  -0.00703  -0.01712  -0.28555  -0.30266  -3.09560
   D18        0.34801  -0.00701  -0.01735  -0.28285  -0.30019   0.04782
   D19        0.34884  -0.00704  -0.01702  -0.28373  -0.30077   0.04807
   D20       -2.79339  -0.00702  -0.01725  -0.28103  -0.29830  -3.09169
   D21        0.00083   0.00017   0.00030   0.00115   0.00133   0.00216
   D22        2.10326  -0.00098  -0.00029  -0.00454  -0.00492   2.09834
   D23       -2.10962  -0.00032  -0.00201  -0.00638  -0.00857  -2.11819
         Item               Value     Threshold  Converged?
 Maximum Force            0.031091     0.000450     NO 
 RMS     Force            0.008530     0.000300     NO 
 Maximum Displacement     0.473869     0.001800     NO 
 RMS     Displacement     0.098749     0.001200     NO 
 Predicted change in Energy=-1.151442D-02
 GradGradGradGradGradGradGradGradGradGradGradGradGradGradGradGradGradGrad

                          Input orientation:                          
 ---------------------------------------------------------------------
 Center     Atomic      Atomic             Coordinates (Angstroms)
 Number     Number       Type             X           Y           Z
 ---------------------------------------------------------------------
      1          6           0        1.012664    1.158301   -0.020621
      2          6           0       -0.330132    1.269818   -0.043776
      3          6           0       -1.035473   -0.016241   -0.001434
      4          6           0       -0.063502   -1.144255    0.038336
      5         16           0        1.559570   -0.443304    0.027139
      6          1           0        1.715515    1.991893   -0.025484
      7          1           0       -0.881186    2.211859   -0.072211
      8          6           0       -2.365150   -0.147406   -0.001202
      9          1           0       -0.206110   -1.808361   -0.850647
     10          1           0       -0.202177   -1.773251    0.954101
     11          1           0       -2.843615   -1.132019    0.074469
     12          1           0       -3.021225    0.728638   -0.078671
 ---------------------------------------------------------------------
                    Distance matrix (angstroms):
                    1          2          3          4          5
     1  C    0.000000
     2  C    1.347618   0.000000
     3  C    2.361098   1.467395   0.000000
     4  C    2.542317   2.430141   1.489538   0.000000
     5  S    1.693082   2.551625   2.630104   1.767999   0.000000
     6  H    1.090366   2.169424   3.406041   3.606162   2.440753
     7  H    2.167791   1.091747   2.234557   3.456057   3.607916
     8  C    3.621447   2.480249   1.336131   2.508556   3.935960
     9  H    3.312920   3.184589   2.149581   1.118778   2.398231
    10  H    3.319627   3.205059   2.166683   1.119595   2.394111
    11  H    4.486145   3.478563   2.126052   2.780374   4.456973
    12  H    4.057122   2.745191   2.122268   3.502791   4.729516
                    6          7          8          9         10
     6  H    0.000000
     7  H    2.606420   0.000000
     8  C    4.607496   2.788068   0.000000
     9  H    4.337680   4.150164   2.853380   0.000000
    10  H    4.337446   4.170788   2.869570   1.805095   0.000000
    11  H    5.527611   3.879970   1.097323   2.875710   2.856944
    12  H    4.902586   2.603795   1.097219   3.867452   3.908082
                   11         12
    11  H    0.000000
    12  H    1.875378   0.000000
 Stoichiometry    C5H6S
 Framework group  C1[X(C5H6S)]
 Deg. of freedom    30
 Full point group                 C1      NOp   1
 Largest Abelian subgroup         C1      NOp   1
 Largest concise Abelian subgroup C1      NOp   1
                         Standard orientation:                         
 ---------------------------------------------------------------------
 Center     Atomic      Atomic             Coordinates (Angstroms)
 Number     Number       Type             X           Y           Z
 ---------------------------------------------------------------------
      1          6           0       -0.944800    1.172551   -0.005978
      2          6           0        0.399307    1.269104    0.005357
      3          6           0        1.089591   -0.025781    0.000270
      4          6           0        0.104534   -1.143091    0.002898
      5         16           0       -1.510301   -0.423282    0.001365
      6          1           0       -1.638016    2.013998   -0.023751
      7          1           0        0.961281    2.205089   -0.000021
      8          6           0        2.417650   -0.172368   -0.003849
      9          1           0        0.245291   -1.779816    0.911982
     10          1           0        0.230060   -1.802848   -0.892902
     11          1           0        2.884312   -1.164415   -0.050598
     12          1           0        3.084198    0.698016    0.041271
 ---------------------------------------------------------------------
 Rotational constants (GHZ):           6.6085574           2.6158653           1.8972415
 Standard basis: VSTO-6G (5D, 7F)
 There are    30 symmetry adapted cartesian basis functions of A   symmetry.
 There are    30 symmetry adapted basis functions of A   symmetry.
    30 basis functions,   180 primitive gaussians,    30 cartesian basis functions
    16 alpha electrons       16 beta electrons
       nuclear repulsion energy       128.4956611757 Hartrees.



 Warning!  S  atom    5 may be hypervalent but has no d functions.



 Integral buffers will be    131072 words long.
 Regular integral format.
 Two-electron integral symmetry is turned off.
 Do NDO integrals.
 One-electron integrals computed using PRISM.
 NBasis=    30 RedAO= F EigKep=  0.00D+00  NBF=    30
 NBsUse=    30 1.00D-04 EigRej=  0.00D+00 NBFU=    30
 Initial guess from the checkpoint file:  "meth_thiophene_isomer_opt.chk"
 B after Tr=    -0.000000    0.000000   -0.000000
         Rot=    0.999999    0.000214   -0.000095   -0.001478 Ang=   0.17 deg.
 Keep J ints in memory in canonical form, NReq=861564.
 Overlap will be assumed to be unity.
 Requested convergence on RMS density matrix=1.00D-08 within 128 cycles.
 Requested convergence on MAX density matrix=1.00D-06.
 Requested convergence on             energy=1.00D-06.
 No special actions if energy rises.
 SCF Done:  E(RAM1) =  0.526579112746E-01 A.U. after   13 cycles
            NFock= 12  Conv=0.28D-08     -V/T= 1.0010
 Calling FoFJK, ICntrl=      2127 FMM=F ISym2X=0 I1Cent= 0 IOpClX= 0 NMat=1 NMatS=1 NMatT=0.
 ***** Axes restored to original set *****
 -------------------------------------------------------------------
 Center     Atomic                   Forces (Hartrees/Bohr)
 Number     Number              X              Y              Z
 -------------------------------------------------------------------
      1        6          -0.000526384    0.000582790   -0.000220871
      2        6          -0.000822577   -0.001773972    0.000623854
      3        6          -0.001152752    0.007690664   -0.000287819
      4        6          -0.009345469   -0.008979086    0.000807785
      5       16           0.009957988    0.002185154    0.000200674
      6        1           0.001485357   -0.000259581   -0.000367297
      7        1          -0.001898052    0.000519330   -0.000351539
      8        6           0.003269382   -0.001146901    0.000034129
      9        1           0.001625330    0.000068875    0.000090505
     10        1           0.000685782    0.001276576   -0.000631501
     11        1          -0.001655564    0.001326775   -0.001113361
     12        1          -0.001623042   -0.001490623    0.001215441
 -------------------------------------------------------------------
 Cartesian Forces:  Max     0.009957988 RMS     0.003221735

 GradGradGradGradGradGradGradGradGradGradGradGradGradGradGradGradGradGrad
 Berny optimization.
 Using GEDIIS/GDIIS optimizer.
 FormGI is forming the generalized inverse of G from B-inverse, IUseBI=4.
 Internal  Forces:  Max     0.008663085 RMS     0.001695787
 Search for a local minimum.
 Step number   3 out of a maximum of   64
 All quantities printed in internal units (Hartrees-Bohrs-Radians)
 Mixed Optimization -- RFO/linear search
 Update second derivatives using D2CorX and points    2    3
 DE= -1.01D-02 DEPred=-1.15D-02 R= 8.77D-01
 TightC=F SS=  1.41D+00  RLast= 6.24D-01 DXNew= 8.4853D-01 1.8713D+00
 Trust test= 8.77D-01 RLast= 6.24D-01 DXMaxT set to 8.49D-01
 ITU=  1  1  0
 Use linear search instead of GDIIS.
     Eigenvalues ---    0.01176   0.01713   0.01783   0.01951   0.02100
     Eigenvalues ---    0.02239   0.02316   0.06542   0.08553   0.11546
     Eigenvalues ---    0.11663   0.14897   0.15998   0.16000   0.16014
     Eigenvalues ---    0.22490   0.23619   0.24453   0.31233   0.34675
     Eigenvalues ---    0.35019   0.36966   0.37230   0.37232   0.37488
     Eigenvalues ---    0.37785   0.39182   0.42730   0.48073   0.56166
 RFO step:  Lambda=-5.48774369D-04 EMin= 1.17568129D-02
 Quartic linear search produced a step of  0.14648.
 Iteration  1 RMS(Cart)=  0.02180243 RMS(Int)=  0.00054350
 Iteration  2 RMS(Cart)=  0.00056455 RMS(Int)=  0.00004761
 Iteration  3 RMS(Cart)=  0.00000038 RMS(Int)=  0.00004761
[...]
 ! A8    A(2,3,8)              124.9745         -DE/DX =    0.0                 !
 ! A9    A(4,3,8)              124.0511         -DE/DX =    0.0                 !
 ! A10   A(3,4,5)              106.7323         -DE/DX =    0.0                 !
 ! A11   A(3,4,9)              111.5397         -DE/DX =    0.0                 !
 ! A12   A(3,4,10)             111.5397         -DE/DX =    0.0                 !
 ! A13   A(5,4,9)              109.1395         -DE/DX =    0.0                 !
 ! A14   A(5,4,10)             109.1395         -DE/DX =    0.0                 !
 ! A15   A(9,4,10)             108.6909         -DE/DX =    0.0                 !
 ! A16   A(1,5,4)               94.0712         -DE/DX =    0.0                 !
 ! A17   A(3,8,11)             122.2439         -DE/DX =    0.0                 !
 ! A18   A(3,8,12)             122.0901         -DE/DX =    0.0                 !
 ! A19   A(11,8,12)            115.666          -DE/DX =    0.0                 !
 ! D1    D(5,1,2,3)              0.0            -DE/DX =    0.0                 !
 ! D2    D(5,1,2,7)           -180.0            -DE/DX =    0.0                 !
 ! D3    D(6,1,2,3)           -180.0            -DE/DX =    0.0                 !
 ! D4    D(6,1,2,7)              0.0            -DE/DX =    0.0                 !
 ! D5    D(2,1,5,4)              0.0            -DE/DX =    0.0                 !
 ! D6    D(6,1,5,4)           -180.0            -DE/DX =    0.0                 !
 ! D7    D(1,2,3,4)             -0.0001         -DE/DX =    0.0                 !
 ! D8    D(1,2,3,8)            179.9999         -DE/DX =    0.0                 !
 ! D9    D(7,2,3,4)            179.9999         -DE/DX =    0.0                 !
 ! D10   D(7,2,3,8)             -0.0001         -DE/DX =    0.0                 !
 ! D11   D(2,3,4,5)              0.0001         -DE/DX =    0.0                 !
 ! D12   D(2,3,4,9)           -119.1258         -DE/DX =    0.0                 !
 ! D13   D(2,3,4,10)           119.126          -DE/DX =    0.0                 !
 ! D14   D(8,3,4,5)           -179.9999         -DE/DX =    0.0                 !
 ! D15   D(8,3,4,9)             60.8742         -DE/DX =    0.0                 !
 ! D16   D(8,3,4,10)           -60.874          -DE/DX =    0.0                 !
 ! D17   D(2,3,8,11)          -180.0            -DE/DX =    0.0                 !
 ! D18   D(2,3,8,12)             0.0            -DE/DX =    0.0                 !
 ! D19   D(4,3,8,11)             0.0            -DE/DX =    0.0                 !
 ! D20   D(4,3,8,12)           180.0            -DE/DX =    0.0                 !
 ! D21   D(3,4,5,1)              0.0            -DE/DX =    0.0                 !
 ! D22   D(9,4,5,1)            120.6734         -DE/DX =    0.0                 !
 ! D23   D(10,4,5,1)          -120.6735         -DE/DX =    0.0                 !
 --------------------------------------------------------------------------------
 GradGradGradGradGradGradGradGradGradGradGradGradGradGradGradGradGradGrad


 ----------------------------------------------------------------------

 Electric dipole moment (input orientation):
 (Debye = 10**-18 statcoulomb cm , SI units = C m)
                  (au)            (Debye)         (10**-30 SI)
   Tot        0.418340D+00      0.106331D+01      0.354684D+01
   x         -0.418316D+00     -0.106325D+01     -0.354663D+01
   y          0.232431D-02      0.590782D-02      0.197064D-01
   z         -0.381900D-02     -0.970694D-02     -0.323789D-01

 Dipole polarizability, Alpha (input orientation).
 (esu units = cm**3 , SI units = C**2 m**2 J**-1)
 Alpha(0;0):
               (au)            (10**-24 esu)      (10**-40 SI)
   iso        0.603592D+02      0.894431D+01      0.995189D+01
   aniso      0.804297D+02      0.119185D+02      0.132611D+02
   xx         0.108727D+03      0.161117D+02      0.179266D+02
   yx        -0.366495D+01     -0.543090D+00     -0.604269D+00
   yy         0.558232D+02      0.827214D+01      0.920400D+01
   zx         0.758730D+00      0.112432D+00      0.125098D+00
   zy        -0.130217D+01     -0.192962D+00     -0.214699D+00
   zz         0.165276D+02      0.244913D+01      0.272503D+01

 First dipole hyperpolarizability, Beta (input orientation).
 ||, _|_  parallel and perpendicular components, (z) with respect to z axis,
 vector components x,y,z.  Values do not include the 1/n! factor of 1/2.
 (esu units = statvolt**-1 cm**4 , SI units = C**3 m**3 J**-2)
 Beta(0;0,0):
               (au)            (10**-30 esu)      (10**-50 SI)
   || (z)    -0.105648D+02     -0.912716D-01     -0.338746D-01
   _|_(z)    -0.352160D+01     -0.304239D-01     -0.112915D-01
   x         -0.215091D+04     -0.185822D+02     -0.689661D+01
   y          0.116015D+04      0.100228D+02      0.371986D+01
   z         -0.528240D+02     -0.456358D+00     -0.169373D+00
   ||         0.488883D+03      0.422357D+01      0.156754D+01
   xxx       -0.453713D+03     -0.391973D+01     -0.145477D+01
   xxy        0.249555D+03      0.215596D+01      0.800165D+00
   yxy       -0.251141D+03     -0.216966D+01     -0.805249D+00
   yyy        0.155321D+03      0.134185D+01      0.498014D+00
   xxz       -0.109172D+02     -0.943162D-01     -0.350045D-01
   yxz        0.969074D+01      0.837205D-01      0.310720D-01
   yyz       -0.800757D+01     -0.691791D-01     -0.256752D-01
   zxz       -0.121176D+02     -0.104687D+00     -0.388534D-01
   zyz       -0.181595D+02     -0.156884D+00     -0.582259D-01
   zzz        0.131678D+01      0.113760D-01      0.422208D-02

 ----------------------------------------------------------------------

 Dipole orientation:
     6         -0.04921793          2.20203246         -1.90824436
     6         -0.05194308          2.40112832          0.63129307
     6          0.01615390         -0.02443979          1.95846575
     6          0.06756718         -2.17512552          0.13078722
    16          0.03032334         -0.81570413         -2.97970967
     1         -0.09303590          3.77098269         -3.24654748
     1         -0.09871529          4.17023677          1.70011593
     6          0.03185881         -0.30106309          4.46704837
     1         -1.61554130         -3.42412372          0.35901151
     1          1.80967144         -3.34094098          0.35534866
     1          0.08539353         -2.16462872          5.37365743
     1         -0.00851128          1.32359378          5.75458622

 Electric dipole moment (dipole orientation):
 (Debye = 10**-18 statcoulomb cm , SI units = C m)
                  (au)            (Debye)         (10**-30 SI)
   Tot        0.418340D+00      0.106331D+01      0.354684D+01
   x          0.000000D+00      0.000000D+00      0.000000D+00
   y          0.000000D+00      0.000000D+00      0.000000D+00
   z          0.418340D+00      0.106331D+01      0.354684D+01

 Dipole polarizability, Alpha (dipole orientation).
 (esu units = cm**3 , SI units = C**2 m**2 J**-1)
 Alpha(0;0):
               (au)            (10**-24 esu)      (10**-40 SI)
   iso        0.603592D+02      0.894431D+01      0.995189D+01
   aniso      0.804297D+02      0.119185D+02      0.132611D+02
   xx         0.165084D+02      0.244629D+01      0.272187D+01
   yx        -0.104888D+01     -0.155428D+00     -0.172937D+00
   yy         0.557970D+02      0.826826D+01      0.919968D+01
   zx         0.949706D-01      0.140732D-01      0.156585D-01
   zy         0.338201D+01      0.501163D+00      0.557619D+00
   zz         0.108772D+03      0.161184D+02      0.179341D+02

 First dipole hyperpolarizability, Beta (dipole orientation).
 ||, _|_  parallel and perpendicular components, (z) with respect to z axis,
 vector components x,y,z.  Values do not include the 1/n! factor of 1/2.
 (esu units = statvolt**-1 cm**4 , SI units = C**3 m**3 J**-2)
 Beta(0;0,0):
               (au)            (10**-30 esu)      (10**-50 SI)
   || (z)     0.431544D+03      0.372820D+01      0.138369D+01
   _|_(z)     0.143848D+03      0.124273D+01      0.461229D+00
   x         -0.267475D+02     -0.231078D+00     -0.857623D-01
   y          0.114835D+04      0.992083D+01      0.368202D+01
   z          0.215772D+04      0.186410D+02      0.691843D+01
   ||         0.488883D+03      0.422357D+01      0.156754D+01
   xxx        0.133633D+01      0.115448D-01      0.428475D-02
   xxy       -0.184458D+02     -0.159357D+00     -0.591439D-01
   yxy       -0.457983D+01     -0.395662D-01     -0.146846D-01
   yyy        0.151236D+03      0.130656D+01      0.484916D+00
   xxz        0.117649D+02      0.101640D+00      0.377225D-01
   yxz       -0.590592D+01     -0.510226D-01     -0.189365D-01
   yyz        0.249352D+03      0.215421D+01      0.799514D+00
   zxz       -0.567234D+01     -0.490046D-01     -0.181876D-01
   zyz        0.249993D+03      0.215974D+01      0.801567D+00
   zzz        0.458123D+03      0.395782D+01      0.146891D+01

 ----------------------------------------------------------------------
 1\1\GINC-IISERK51\Freq\RAM1\ZDO\C5H6S1\GAUSSIAN\14-Jun-2025\0\\#N Geom
 =AllCheck Guess=TCheck SCRF=Check GenChk RAM1/ZDO Freq\\methyl_thiophe
 ne_isomer opt freq with AM1\\0,1\C,1.016512245,1.1594725759,-0.0232993
 771\C,-0.3266724969,1.27228477,-0.0375948163\C,-1.0364665452,-0.007126
 5054,-0.0008413681\C,-0.0759846512,-1.1504059893,0.0415163054\S,1.5741
 381907,-0.4403093466,0.0328382429\H,1.7295374206,1.9856346263,-0.04463
 33218\H,-0.8867626989,2.2114311791,-0.0727088979\C,-2.3647718536,-0.14
 60825442,-0.0038363874\H,-0.1923516223,-1.8156496383,-0.8465257816\H,-
 0.2066567766,-1.7614806004,0.9656883674\H,-2.8502883315,-1.1293838981,
 0.0255907964\H,-3.0410538502,0.7172878111,-0.0361946718\\Version=EM64L
 -G16RevB.01\State=1-A\HF=0.0520658\RMSD=6.312e-10\RMSF=6.333e-05\ZeroP
 oint=0.0957804\Thermal=0.1013067\Dipole=-0.4183164,0.0023243,-0.003819
 \DipoleDeriv=0.3875668,-0.4887294,0.0197836,-0.9558623,0.4532454,-0.02
 6906,0.0350093,-0.0235073,-0.1570712,-0.5440441,0.342568,-0.0132618,0.
 0555807,-0.1692182,-0.0012753,-0.0046769,0.0011209,-0.2186439,0.025484
 3,-0.0842583,0.0026164,0.1293772,-0.0495113,0.0020757,-0.0040801,0.000
 2291,-0.0257927,0.3346062,0.0824912,0.0007561,0.2925188,-0.1840283,0.0
 07147,-0.0053562,0.0055179,-0.0324353,-0.4200404,0.0814758,-0.0053748,
 0.4888576,-0.5697568,0.0185585,-0.0185988,0.0155867,-0.1081871,0.16555
 2,0.1109129,-0.0037338,0.1761366,0.1319344,0.0029013,-0.0056739,0.0024
 197,0.1812985,0.0995,-0.0552703,0.0013952,-0.1034435,0.1700145,-0.0011
 993,0.0031056,-0.0008755,0.1582635,-0.2677798,0.0244702,-0.0005605,-0.
 055555,-0.0947756,-0.0075773,0.0019862,-0.0069672,-0.3109997,-0.008081
 4,-0.0077717,0.0181703,-0.0169364,0.0943791,0.0281022,0.0093131,0.0504
 64,0.1032954,-0.0074249,-0.0081394,-0.0193591,-0.0172761,0.0897979,-0.
 0276295,-0.0102429,-0.049759,0.1075946,0.0962316,0.0370427,-0.0014953,
 0.1266494,0.0707347,0.0032212,-0.0045915,0.0026089,0.1451086,0.1384304
 ,-0.0347864,0.0010634,-0.1200438,0.0571858,0.0025815,0.0038065,0.00316
 19,0.1575674\Polar=108.7268492,-3.6649501,55.8231958,0.7587302,-1.3021
 732,16.5275633\HyperPolar=-453.712954,249.5554468,-251.1409395,155.320
 7321,-10.9172079,9.6907418,-8.0075677,-12.1175909,-18.1595001,1.316781
 7\PG=C01 [X(C5H6S1)]\NImag=0\\0.90182270,0.11551615,0.46698003,0.00245
 626,-0.01058367,0.11375160,-0.59000265,0.02249852,-0.00491665,0.922916
 94,0.06219039,-0.07158670,0.00078742,-0.07177771,0.69615736,-0.0062013
 2,0.00047425,-0.06236544,0.00838827,-0.01885833,0.13913707,-0.07796252
 ,-0.04192371,0.00071660,-0.10325344,-0.10567543,0.00323374,1.06617815,
 -0.04934956,-0.00643034,0.00009987,-0.09270188,-0.26772326,0.00571838,
 0.06981698,0.62767242,0.00097094,0.00013636,0.00781807,0.00279233,0.00
 562460,-0.07277718,0.00301434,-0.01428781,0.16960167,0.00268837,-0.009
 98307,0.00033069,0.00624481,0.00306716,-0.00012325,-0.15081957,0.10952
 595,-0.00394856,0.36504857,-0.03020289,-0.02949897,0.00075356,0.012525
 81,-0.06511862,0.00245653,0.11114663,-0.19001653,0.00444628,-0.0739763
 3,0.57092186,0.00096130,0.00094450,0.00176843,-0.00040776,0.00242185,0
 .00918250,-0.00403864,0.00444276,-0.07264162,0.00123909,-0.00353669,0.
 48388831,-0.05293027,0.03563795,-0.00134939,-0.03732913,0.04201351,-0.
 00174448,-0.04355568,0.00033494,-0.00037600,-0.10036355,-0.00792829,-0
 .00037988,0.26473377,0.04290252,-0.14506689,0.00407721,0.05053264,-0.0
 3403749,0.00185855,0.00417447,0.00039867,0.00007116,-0.03127925,-0.044
 79920,0.00031256,-0.03874915,0.26572182,-0.00157050,0.00400421,-0.0295
 4366,-0.00202806,0.00178372,0.01091896,-0.00045754,0.00003604,0.001291
 50,0.00035707,0.00052046,-0.02639996,0.00320060,-0.00772715,0.03441278
 ,-0.15586307,-0.14445912,0.00379709,-0.03228466,-0.02453610,0.00050165
 ,-0.00311624,0.00052422,-0.00010849,-0.00042103,0.00252249,-0.00009789
 ,0.00422414,0.00493222,-0.00015735,0.18743977,-0.15016635,-0.20396590,
 0.00415330,-0.00407995,0.00459546,0.00000643,0.00151485,-0.00055566,0.
 00029865,0.00102670,-0.00305571,0.00016091,-0.00885455,-0.02749749,0.0
 0095648,0.16142694,0.22971328,0.00398124,0.00420280,-0.04059075,-0.000
 15771,-0.00015614,0.00576396,-0.00013913,0.00029156,0.00825910,-0.0000
 5048,0.00017159,0.00161743,0.00029146,0.00106360,0.00417737,-0.0039732
 6,-0.00544674,0.02372005,-0.02824418,0.02877283,-0.00122626,-0.1110913
 2,0.12538876,-0.00465767,0.00702175,-0.01146276,0.00037899,-0.00065800
 ,-0.00204646,0.00005804,-0.00259411,0.00075074,-0.00008399,0.00000083,
 -0.00017980,0.00002316,0.13551679,0.01082235,-0.00436318,0.00050101,0.
 12557765,-0.24747744,0.00777368,0.00627183,-0.03375279,0.00136427,-0.0
 0079582,-0.00209014,0.00008448,-0.00148606,0.00159925,0.00010107,0.000
 15965,0.00054716,-0.00008994,-0.14067713,0.28615978,-0.00064406,0.0006
 4413,0.00832576,-0.00465632,0.00777418,-0.04028760,-0.00020857,0.00122
 418,0.00632582,0.00001527,0.00007238,0.00059928,-0.00000889,0.00011741
 ,0.00503138,0.00001232,-0.00009290,-0.00224716,0.00548986,-0.00975246,
 0.02232736,0.00596448,-0.00346533,0.00015391,-0.05029960,-0.03440996,0
 .00077169,-0.63479845,-0.05260309,-0.00155990,-0.04775653,0.02164829,-
 0.00097909,-0.00254055,0.00206835,-0.00009317,-0.00016344,0.00001631,-
 0.00000187,0.00005083,-0.00000670,0.00000567,0.96464150,-0.00091635,-0
 .00543298,0.00018574,-0.04341224,-0.01377045,0.00039957,-0.05866834,-0
 .08052227,0.00039930,0.03193924,-0.00296566,0.00045402,0.00293611,-0.0
 0076230,0.00005991,-0.00057706,0.00042666,-0.00002737,-0.00042779,-0.0
 0023311,-0.00000400,0.04181297,0.58385120,0.00006238,0.00017354,0.0004
 9816,0.00106922,0.00044954,0.00662605,-0.00136402,0.00043029,-0.058511
 39,-0.00133374,0.00039717,0.00557691,-0.00011813,0.00005279,0.00050334
 ,0.00001948,-0.00002051,-0.00020416,0.00001553,-0.00000079,-0.00025581
 ,0.00343897,-0.01466772,0.12961213,-0.00239012,-0.00145525,-0.00108734
 ,-0.00114523,0.00150006,-0.00053523,0.00116576,0.01668883,0.01377119,-
 0.03505455,-0.01604566,-0.02602061,-0.01467483,-0.01792821,-0.01212527
 ,0.00017230,-0.00029982,0.00038660,0.00012091,0.00020819,0.00011111,-0
 .00064103,0.00070238,-0.00011562,0.04650287,-0.00025494,-0.00042315,-0
 .00025121,0.00039028,-0.00083234,0.00055896,0.01000222,-0.02427898,-0.
 01966422,-0.01418925,-0.12388941,-0.12110116,-0.01203634,-0.00810798,-
 0.00824060,0.00000062,-0.00009926,0.00006872,-0.00007955,-0.00017218,-
 0.00011425,-0.00034909,-0.00025348,-0.00026339,0.01568638,0.14991317,0
 .00033651,0.00026231,0.00007454,-0.00010385,0.00027984,-0.00042619,0.0
 0440428,-0.00932326,0.00009529,-0.02269068,-0.11933890,-0.19760312,-0.
 00427050,-0.00406015,0.00005949,-0.00006173,0.00000986,-0.00003219,0.0
 0004422,0.00000222,0.00006212,-0.00044210,0.00020285,0.00009984,0.0240
 4918,0.14138696,0.22940124,-0.00241561,-0.00139038,0.00113883,-0.00116
 510,0.00154313,0.00042830,0.00147881,0.01566884,-0.01471317,-0.0359172
 1,-0.01623415,0.02966753,-0.01489418,-0.01722126,0.01295165,0.00017932
 ,-0.00032740,-0.00036289,0.00012506,0.00020168,-0.00012349,-0.00064915
 ,0.00070672,0.00006191,0.00586888,0.00082452,-0.00131141,0.04731859,-0
 .00028352,-0.00042808,0.00027967,0.00040937,-0.00089249,-0.00051731,0.
 00937734,-0.02243363,0.02115463,-0.01460361,-0.10984963,0.11567043,-0.
 01186792,-0.00735209,0.00850373,0.00000632,-0.00010515,-0.00006401,-0.
 00008549,-0.00016578,0.00012707,-0.00032731,-0.00024215,0.00028076,0.0
 0104900,0.00810957,-0.00941759,0.01631619,0.13336319,-0.00035965,-0.00
 025726,0.00008708,0.00006608,-0.00023261,-0.00036575,-0.00493220,0.010
 90624,-0.00204051,0.02622571,0.11391763,-0.21090088,0.00475186,0.00423
 248,-0.00042633,0.00006506,-0.00001116,-0.00003238,-0.00003824,0.00001
 497,0.00005161,0.00044425,-0.00017266,0.00010201,0.00184987,0.00704571
 ,-0.03174359,-0.02802599,-0.13544755,0.24521787,-0.00039880,-0.0005794
 8,0.00001484,-0.00275365,0.00069233,-0.00008870,-0.02694635,-0.0330986
 5,0.00088729,-0.00042678,-0.00030119,0.00002873,0.00033615,-0.00009023
 ,0.00000544,-0.00015263,0.00003755,0.00000183,-0.00002385,0.00006244,-
 0.00000121,-0.09152325,-0.10685106,0.00321990,0.00003531,0.00004240,0.
 00005856,0.00003790,0.00003520,-0.00006239,0.11495787,-0.00038487,0.00
 068116,-0.00001795,0.00042272,0.00028966,0.00029051,-0.01172646,-0.005
 27416,0.00033033,-0.00019882,0.00000608,-0.00013181,0.00001898,-0.0002
 5009,0.00001010,-0.00003746,-0.00009909,-0.00002553,0.00013386,0.00000
 533,-0.00000639,-0.11140939,-0.26559582,0.00668028,0.00002407,0.000016
 88,0.00003810,-0.00000117,0.00004672,-0.00003399,0.12794997,0.29863077
 ,0.00001222,-0.00001772,0.00019933,-0.00008271,0.00028446,0.00900659,0
 .00018078,0.00021077,0.00687719,0.00002603,-0.00012902,-0.00391084,-0.
 00000069,0.00001191,0.00005366,0.00000805,-0.00002453,-0.00086235,-0.0
 0000327,-0.00000785,-0.00021016,0.00337092,0.00670418,-0.04237116,0.00
 037537,-0.00048040,0.00009600,-0.00037371,0.00048274,0.00006224,-0.003
 65876,-0.00831994,0.02250578,-0.00026813,0.00083080,-0.00002856,0.0001
 6336,0.00000399,0.00002700,-0.03539265,0.02665624,-0.00110895,-0.00256
 408,-0.00110848,-0.00003080,-0.00041222,-0.00009279,0.00000113,-0.0000
 1537,-0.00011441,0.00000105,-0.00022481,-0.00033817,0.00000833,-0.1422
 8471,0.13275543,-0.00495586,0.00003977,-0.00003723,-0.00001247,0.00003
 272,-0.00002554,0.00001561,0.00685809,-0.00479132,0.00014577,0.1740680
 1,0.00012683,-0.00046453,0.00001501,-0.00038509,0.00039646,-0.00016118
 ,0.00568942,0.00291611,0.00012645,-0.00053285,0.00035589,0.00027815,-0
 .00001902,0.00015352,-0.00000796,0.00003737,0.00009571,0.00001147,-0.0
 0008719,-0.00005696,0.00001066,0.13702501,-0.21449949,0.00648803,-0.00
 013000,0.00001719,-0.00004216,-0.00008672,-0.00005046,0.00003811,0.012
 10062,-0.02845747,0.00128539,-0.15373849,0.23959405,-0.00000532,0.0000
 1650,-0.00002363,0.00003715,-0.00015850,-0.00441179,-0.00040963,0.0002
 5101,0.00570225,-0.00004715,0.00026904,0.00882368,0.00000404,-0.000010
 38,-0.00007893,-0.00000493,0.00001020,0.00043090,-0.00000035,0.0000093
 3,0.00027718,-0.00510927,0.00646617,-0.04167591,-0.00065926,0.00105485
 ,-0.00008340,0.00066248,-0.00105254,-0.00001134,-0.00040552,0.00118629
 ,0.00855358,0.00593776,-0.00804198,0.02249726\\-0.00013344,0.00006144,
 0.00002717,0.00011853,-0.00001125,-0.00002627,0.00021538,-0.00001116,-
 0.00000162,0.00005883,0.00003096,0.00001235,-0.00007993,-0.00004888,-0
 .00000499,-0.00001841,-0.00001967,-0.00000405,0.00003392,-0.00000362,-
 0.00000371,-0.00020619,-0.00000723,0.00002940,0.00000677,0.00002485,-0
 .00001759,0.00000106,-0.00000442,-0.00000019,0.00000459,-0.00001986,0.
 00000898,-0.00000111,0.00000885,-0.00001946\\\@


 TOM, TOM, THE BURGLAR'S SON
 STOLE A MACHINE AND AWAY HE RUN
 THE JOB WAS NEAT, BUT TOM GOT BEAT
 BY THE TIME HE GOT HOME IT WAS OBSOLETE.
 Job cpu time:       0 days  0 hours  0 minutes  0.5 seconds.
 Elapsed time:       0 days  0 hours  0 minutes  0.5 seconds.
 File lengths (MBytes):  RWF=      8 Int=      0 D2E=      0 Chk=      2 Scr=      1
 Normal termination of Gaussian 16 at Sat Jun 14 14:52:24 2025.
