 Entering Gaussian System, Link 0=g16
 Input=/home/gaussian/Documents/Summer_Internship/Aromaticity/hetrocyclic/thiphene/meth_thiophene_opt.com
 Output=/home/gaussian/Documents/Summer_Internship/Aromaticity/hetrocyclic/thiphene/meth_thiophene_opt.log
 Initial command:
 /usr/local/g16/l1.exe "/home/gaussian/tmp/Gau-47068.inp" -scrdir="/home/gaussian/tmp/"
 Entering Link 1 = /usr/local/g16/l1.exe PID=     47071.
  
 Copyright (c) 1988-2017, Gaussian, Inc.  All Rights Reserved.
  
 This is part of the Gaussian(R) 16 program.  It is based on
 the Gaussian(R) 09 system (copyright 2009, Gaussian, Inc.),
 the Gaussian(R) 03 system (copyright 2003, Gaussian, Inc.),
 the Gaussian(R) 98 system (copyright 1998, Gaussian, Inc.),
 the Gaussian(R) 94 system (copyright 1995, Gaussian, Inc.),
 the Gaussian 92(TM) system (copyright 1992, Gaussian, Inc.),
 the Gaussian 90(TM) system (copyright 1990, Gaussian, Inc.),
 the Gaussian 88(TM) system (copyright 1988, Gaussian, Inc.),
 the Gaussian 86(TM) system (copyright 1986, Carnegie Mellon
 University), and the Gaussian 82(TM) system (copyright 1983,
 Carnegie Mellon University). Gaussian is a federally registered
 trademark of Gaussian, Inc.
  
 This software contains proprietary and confidential information,
 including trade secrets, belonging to Gaussian, Inc.
  
 This software is provided under written license and may be
 used, copied, transmitted, or stored only in accord with that
 written license.
  
 The following legend is applicable only to US Government
 contracts under FAR:
  
                    RESTRICTED RIGHTS LEGEND
  
 Use, reproduction and disclosure by the US Government is
 subject to restrictions as set forth in subparagraphs (a)
 and (c) of the Commercial Computer Software - Restricted
 Rights clause in FAR 52.227-19.
  
 Gaussian, Inc.
 340 Quinnipiac St., Bldg. 40, Wallingford CT 06492
  
  
 ---------------------------------------------------------------
 Warning -- This program may not be used in any manner that
 competes with the business of Gaussian, Inc. or will provide
 assistance to any competitor of Gaussian, Inc.  The licensee
 of this program is prohibited from giving any competitor of
 Gaussian, Inc. access to this program.  By using this program,
 the user acknowledges that Gaussian, Inc. is engaged in the
 business of creating and licensing software in the field of
 computational chemistry and represents and warrants to the
 licensee that it is not a competitor of Gaussian, Inc. and that
 it will not use this program in any manner prohibited above.
 ---------------------------------------------------------------
  

 Cite this work as:
 Gaussian 16, Revision B.01,
 M. J. Frisch, G. W. Trucks, H. B. Schlegel, G. E. Scuseria, 
 M. A. Robb, J. R. Cheeseman, G. Scalmani, V. Barone, 
 G. A. Petersson, H. Nakatsuji, X. Li, M. Caricato, A. V. Marenich, 
 J. Bloino, B. G. Janesko, R. Gomperts, B. Mennucci, H. P. Hratchian, 
 J. V. Ortiz, A. F. Izmaylov, J. L. Sonnenberg, D. Williams-Young, 
 F. Ding, F. Lipparini, F. Egidi, J. Goings, B. Peng, A. Petrone, 
 T. Henderson, D. Ranasinghe, V. G. Zakrzewski, J. Gao, N. Rega, 
 G. Zheng, W. Liang, M. Hada, M. Ehara, K. Toyota, R. Fukuda, 
 J. Hasegawa, M. Ishida, T. Nakajima, Y. Honda, O. Kitao, H. Nakai, 
 T. Vreven, K. Throssell, J. A. Montgomery, Jr., J. E. Peralta, 
 F. Ogliaro, M. J. Bearpark, J. J. Heyd, E. N. Brothers, K. N. Kudin, 
 V. N. Staroverov, T. A. Keith, R. Kobayashi, J. Normand, 
 K. Raghavachari, A. P. Rendell, J. C. Burant, S. S. Iyengar, 
 J. Tomasi, M. Cossi, J. M. Millam, M. Klene, C. Adamo, R. Cammi, 
 J. W. Ochterski, R. L. Martin, K. Morokuma, O. Farkas, 
 J. B. Foresman, and D. J. Fox, Gaussian, Inc., Wallingford CT, 2016.
 
 ******************************************
 Gaussian 16:  EM64L-G16RevB.01 20-Dec-2017
                14-Jun-2025 
 ******************************************
 %chk=meth_thiophene_opt.chk
 -----------------------------------------
 # opt freq am1 pop=full geom=connectivity
 -----------------------------------------
 1/18=20,19=15,26=1,38=1,57=2/1,3;
 2/9=110,12=2,17=6,18=5,40=1/2;
 3/5=2,25=1,41=700000,71=1/1,2,3;
 4/35=1/1;
 5/5=2,35=1,38=5/2;
 6/7=3,28=1/1;
 7//1,2,3,16;
 1/18=20,19=15,26=1/3(2);
 2/9=110/2;
 99//99;
 2/9=110/2;
 3/5=2,25=1,41=700000,71=1,135=20/1,2,3;
 4/5=5,16=3,35=1/1;
 5/5=2,35=1,38=5/2;
 7//1,2,3,16;
 1/18=20,19=15,26=1/3(-5);
 2/9=110/2;
 6/7=3,19=2,28=1/1;
 99/9=1/99;
 ----------------------------------
 methyl_thiophene opt freq with AM1
 ----------------------------------
 Symbolic Z-matrix:
 Charge =  0 Multiplicity = 1
 C                    -1.01176   1.29327  -0.01677 
 C                     0.34565   1.30253  -0.09599 
 C                     0.92725   2.73816   0.00233 
 C                    -0.0463    3.6765    0.14605 
 S                    -1.64823   2.9459   -0.04689 
 H                    -1.61172   0.41042   0.0576 
 H                     0.94392   0.42173  -0.20167 
 H                     0.13071   4.7116    0.35129 
 C                     2.43246   3.06066  -0.04171 
 H                     2.83067   3.04083   0.95124 
 H                     2.93586   2.33226  -0.64248 
 H                     2.57669   4.03296  -0.46448 
 

 GradGradGradGradGradGradGradGradGradGradGradGradGradGradGradGradGradGrad
 Berny optimization.
 Initialization pass.
                           ----------------------------
                           !    Initial Parameters    !
                           ! (Angstroms and Degrees)  !
 --------------------------                            --------------------------
 ! Name  Definition              Value          Derivative Info.                !
 --------------------------------------------------------------------------------
 ! R1    R(1,2)                  1.3598         estimate D2E/DX2                !
 ! R2    R(1,5)                  1.7712         estimate D2E/DX2                !
 ! R3    R(1,6)                  1.07           estimate D2E/DX2                !
 ! R4    R(2,3)                  1.5521         estimate D2E/DX2                !
 ! R5    R(2,7)                  1.07           estimate D2E/DX2                !
 ! R6    R(3,4)                  1.3598         estimate D2E/DX2                !
 ! R7    R(3,9)                  1.54           estimate D2E/DX2                !
 ! R8    R(4,5)                  1.7712         estimate D2E/DX2                !
 ! R9    R(4,8)                  1.07           estimate D2E/DX2                !
 ! R10   R(9,10)                 1.07           estimate D2E/DX2                !
 ! R11   R(9,11)                 1.07           estimate D2E/DX2                !
 ! R12   R(9,12)                 1.07           estimate D2E/DX2                !
 ! A1    A(2,1,5)              110.5716         estimate D2E/DX2                !
 ! A2    A(2,1,6)              124.709          estimate D2E/DX2                !
 ! A3    A(5,1,6)              124.719          estimate D2E/DX2                !
 ! A4    A(1,2,3)              112.1285         estimate D2E/DX2                !
 ! A5    A(1,2,7)              123.9398         estimate D2E/DX2                !
 ! A6    A(3,2,7)              123.9276         estimate D2E/DX2                !
 ! A7    A(2,3,4)              112.1297         estimate D2E/DX2                !
 ! A8    A(2,3,9)              123.9279         estimate D2E/DX2                !
 ! A9    A(4,3,9)              123.9391         estimate D2E/DX2                !
 ! A10   A(3,4,5)              110.5722         estimate D2E/DX2                !
 ! A11   A(3,4,8)              124.7087         estimate D2E/DX2                !
 ! A12   A(5,4,8)              124.7187         estimate D2E/DX2                !
 ! A13   A(1,5,4)               93.3263         estimate D2E/DX2                !
 ! A14   A(3,9,10)             109.4712         estimate D2E/DX2                !
 ! A15   A(3,9,11)             109.4712         estimate D2E/DX2                !
 ! A16   A(3,9,12)             109.4712         estimate D2E/DX2                !
 ! A17   A(10,9,11)            109.4712         estimate D2E/DX2                !
 ! A18   A(10,9,12)            109.4712         estimate D2E/DX2                !
 ! A19   A(11,9,12)            109.4712         estimate D2E/DX2                !
 ! D1    D(5,1,2,3)              7.5901         estimate D2E/DX2                !
 ! D2    D(5,1,2,7)           -173.115          estimate D2E/DX2                !
 ! D3    D(6,1,2,3)           -172.1705         estimate D2E/DX2                !
 ! D4    D(6,1,2,7)              7.1244         estimate D2E/DX2                !
 ! D5    D(2,1,5,4)            -10.257          estimate D2E/DX2                !
 ! D6    D(6,1,5,4)            169.5036         estimate D2E/DX2                !
 ! D7    D(1,2,3,4)             -0.0181         estimate D2E/DX2                !
 ! D8    D(1,2,3,9)            179.333          estimate D2E/DX2                !
 ! D9    D(7,2,3,4)           -179.3131         estimate D2E/DX2                !
 ! D10   D(7,2,3,9)              0.038          estimate D2E/DX2                !
 ! D11   D(2,3,4,5)             -7.5631         estimate D2E/DX2                !
 ! D12   D(2,3,4,8)            172.1972         estimate D2E/DX2                !
 ! D13   D(9,3,4,5)            173.0859         estimate D2E/DX2                !
 ! D14   D(9,3,4,8)             -7.1539         estimate D2E/DX2                !
 ! D15   D(2,3,9,10)           -89.6378         estimate D2E/DX2                !
 ! D16   D(2,3,9,11)            30.3622         estimate D2E/DX2                !
 ! D17   D(2,3,9,12)           150.3622         estimate D2E/DX2                !
 ! D18   D(4,3,9,10)            89.6378         estimate D2E/DX2                !
 ! D19   D(4,3,9,11)          -150.3622         estimate D2E/DX2                !
 ! D20   D(4,3,9,12)           -30.3622         estimate D2E/DX2                !
 ! D21   D(3,4,5,1)             10.2462         estimate D2E/DX2                !
 ! D22   D(8,4,5,1)           -169.514          estimate D2E/DX2                !
 --------------------------------------------------------------------------------
 Trust Radius=3.00D-01 FncErr=1.00D-07 GrdErr=1.00D-07 EigMax=2.50D+02 EigMin=1.00D-04
 Number of steps in this run=     63 maximum allowed number of steps=    100.
 GradGradGradGradGradGradGradGradGradGradGradGradGradGradGradGradGradGrad

                          Input orientation:                          
 ---------------------------------------------------------------------
 Center     Atomic      Atomic             Coordinates (Angstroms)
 Number     Number       Type             X           Y           Z
 ---------------------------------------------------------------------
      1          6           0       -1.011764    1.293271   -0.016774
      2          6           0        0.345647    1.302528   -0.095993
      3          6           0        0.927252    2.738161    0.002329
      4          6           0       -0.046297    3.676498    0.146047
      5         16           0       -1.648228    2.945901   -0.046895
      6          1           0       -1.611721    0.410423    0.057597
      7          1           0        0.943921    0.421732   -0.201668
      8          1           0        0.130713    4.711603    0.351292
      9          6           0        2.432462    3.060657   -0.041706
     10          1           0        2.830669    3.040831    0.951238
     11          1           0        2.935859    2.332257   -0.642476
     12          1           0        2.576686    4.032956   -0.464477
 ---------------------------------------------------------------------
                    Distance matrix (angstroms):
                    1          2          3          4          5
     1  C    0.000000
     2  C    1.359753   0.000000
     3  C    2.418234   1.552087   0.000000
     4  C    2.576511   2.418251   1.359754   0.000000
     5  S    1.771209   2.584303   2.584313   1.771209   0.000000
     6  H    1.070000   2.156556   3.444968   3.622931   2.537893
     7  H    2.149063   1.070000   2.325454   3.419787   3.621411
     8  H    3.622944   3.445004   2.156554   1.070000   2.537890
     9  C    3.871301   2.729242   1.540000   2.561007   4.082306
    10  H    4.330740   3.208384   2.148263   3.054397   4.589749
    11  H    4.129737   2.840455   2.148263   3.364819   4.663167
    12  H    4.536881   3.545215   2.148263   2.716586   4.382460
                    6          7          8          9         10
     6  H    0.000000
     7  H    2.568785   0.000000
     8  H    4.649998   4.401143   0.000000
     9  C    4.836220   3.034018   2.859741   0.000000
    10  H    5.239511   3.427636   3.231281   1.070000   0.000000
    11  H    4.986385   2.795037   3.810211   1.070000   1.747303
    12  H    5.562199   3.971892   2.666238   1.070000   1.747303
                   11         12
    11  H    0.000000
    12  H    1.747303   0.000000
 Stoichiometry    C5H6S
 Framework group  C1[X(C5H6S)]
 Deg. of freedom    30
 Full point group                 C1      NOp   1
 Largest Abelian subgroup         C1      NOp   1
 Largest concise Abelian subgroup C1      NOp   1
                         Standard orientation:                         
 ---------------------------------------------------------------------
 Center     Atomic      Atomic             Coordinates (Angstroms)
 Number     Number       Type             X           Y           Z
 ---------------------------------------------------------------------
      1          6           0        1.116331    1.159716    0.062648
      2          6           0       -0.231216    1.326710   -0.009171
      3          6           0       -0.990139   -0.026983    0.013776
      4          6           0       -0.143493   -1.087467    0.100341
      5         16           0        1.538329   -0.556000   -0.061516
      6          1           0        1.823210    1.954091    0.181777
      7          1           0       -0.712948    2.280613   -0.063054
      8          1           0       -0.450471   -2.101554    0.249647
      9          6           0       -2.524022   -0.153460   -0.039207
     10          1           0       -2.917744   -0.138045    0.955602
     11          1           0       -2.930332    0.664733   -0.596318
     12          1           0       -2.789739   -1.074945   -0.513717
 ---------------------------------------------------------------------
 Rotational constants (GHZ):           6.4301842           2.4029810           1.7732347
 Standard basis: VSTO-6G (5D, 7F)
 There are    30 symmetry adapted cartesian basis functions of A   symmetry.
 There are    30 symmetry adapted basis functions of A   symmetry.
    30 basis functions,   180 primitive gaussians,    30 cartesian basis functions
    16 alpha electrons       16 beta electrons
       nuclear repulsion energy       126.6257869977 Hartrees.
 Integral buffers will be    131072 words long.
 Regular integral format.
 Two-electron integral symmetry is turned off.
 Do NDO integrals.
 One-electron integrals computed using PRISM.
 NBasis=    30 RedAO= F EigKep=  0.00D+00  NBF=    30
 NBsUse=    30 1.00D-04 EigRej=  0.00D+00 NBFU=    30
 Simple Huckel Guess.
 Keep J ints in memory in canonical form, NReq=861564.
 Overlap will be assumed to be unity.
 Requested convergence on RMS density matrix=1.00D-08 within 128 cycles.
 Requested convergence on MAX density matrix=1.00D-06.
 Requested convergence on             energy=1.00D-06.
 No special actions if energy rises.
 SCF Done:  E(RAM1) =  0.605901997205E-01 A.U. after   13 cycles
            NFock= 12  Conv=0.81D-08     -V/T= 1.0012

 **********************************************************************

            Population analysis using the SCF Density.

 **********************************************************************

 Orbital symmetries:
       Occupied  (A) (A) (A) (A) (A) (A) (A) (A) (A) (A) (A) (A)
                 (A) (A) (A) (A)
       Virtual   (A) (A) (A) (A) (A) (A) (A) (A) (A) (A) (A) (A)
                 (A) (A)
 The electronic state is 1-A.
 Alpha  occ. eigenvalues --   -1.36503  -1.16537  -1.04489  -0.85284  -0.72480
 Alpha  occ. eigenvalues --   -0.67176  -0.58080  -0.53574  -0.52208  -0.51562
 Alpha  occ. eigenvalues --   -0.48603  -0.47214  -0.45688  -0.42118  -0.35680
 Alpha  occ. eigenvalues --   -0.32513
 Alpha virt. eigenvalues --    0.01093   0.03083   0.04175   0.05839   0.12664
 Alpha virt. eigenvalues --    0.15210   0.16078   0.16635   0.17135   0.17519
 Alpha virt. eigenvalues --    0.18287   0.18654   0.19405   0.20446
     Molecular Orbital Coefficients:
                           1         2         3         4         5
                           O         O         O         O         O
     Eigenvalues --    -1.36503  -1.16537  -1.04489  -0.85284  -0.72480
   1 1   C  1S          0.34790   0.49673  -0.18582   0.43321   0.10642
   2        1PX        -0.13225  -0.09916   0.01692   0.22698   0.22276
   3        1PY        -0.03736   0.01486  -0.06595  -0.06446  -0.18064
   4        1PZ        -0.00652  -0.00735   0.00344   0.01014   0.00164
   5 2   C  1S          0.44447   0.35828  -0.17957  -0.41876  -0.25947
   6        1PX         0.04878   0.19392  -0.02910   0.26131  -0.05817
   7        1PY        -0.11366   0.03463  -0.07394   0.02017  -0.29384
   8        1PZ         0.00651   0.00748   0.00105   0.01098   0.00317
   9 3   C  1S          0.52284  -0.26125   0.08548  -0.26724   0.40065
  10        1PX         0.07913   0.15912   0.26096  -0.05427   0.00240
  11        1PY        -0.01075   0.13903  -0.18544  -0.23656  -0.02020
  12        1PZ         0.00402  -0.00057   0.01791   0.00936   0.00024
  13 4   C  1S          0.39170  -0.20257   0.55485   0.19557  -0.25825
  14        1PX        -0.05732   0.09429   0.02320   0.07194  -0.22222
  15        1PY         0.13966   0.00493   0.03711  -0.08860   0.32887
  16        1PZ        -0.01056   0.00354  -0.00468   0.00820  -0.02297
  17 5   S  1S          0.11253   0.06639   0.10724   0.26948  -0.01040
  18        1PX        -0.16803  -0.00320  -0.19644  -0.08377   0.14293
  19        1PY         0.08676   0.17038  -0.11663   0.17598   0.31069
  20        1PZ         0.01519   0.00671   0.01689   0.03160  -0.01056
  21 6   H  1S          0.09037   0.17442  -0.09389   0.24489   0.06266
  22 7   H  1S          0.12568   0.11515  -0.10026  -0.23825  -0.26291
  23 8   H  1S          0.10790  -0.09669   0.20534   0.12036  -0.27628
  24 9   C  1S          0.26772  -0.47405  -0.49468   0.18756  -0.11837
  25        1PX         0.08837  -0.05162   0.04701  -0.11967   0.22400
  26        1PY         0.00456   0.01581  -0.03271  -0.07026   0.01487
  27        1PZ         0.00312  -0.00287   0.00290  -0.00071   0.01010
  28 10  H  1S          0.09435  -0.18118  -0.20784   0.10345  -0.10033
  29 11  H  1S          0.09488  -0.17205  -0.22434   0.07039  -0.10769
  30 12  H  1S          0.09692  -0.19094  -0.18928   0.13310  -0.10459
                           6         7         8         9        10
                           O         O         O         O         O
     Eigenvalues --    -0.67176  -0.58080  -0.53574  -0.52208  -0.51562
   1 1   C  1S         -0.12826   0.01065   0.01193   0.07778  -0.03505
   2        1PX        -0.09553   0.41534  -0.01016   0.01487   0.26255
   3        1PY        -0.37864   0.03606  -0.01058   0.10646   0.34540
   4        1PZ        -0.02973   0.02877   0.16918   0.02366   0.07544
   5 2   C  1S          0.02182   0.01103  -0.00701  -0.06953  -0.05217
   6        1PX        -0.08481  -0.39650  -0.00752   0.04648  -0.16239
   7        1PY        -0.20682   0.20384  -0.08267  -0.29210   0.14782
   8        1PZ        -0.01324  -0.01698   0.20204  -0.00061   0.02166
   9 3   C  1S         -0.10203   0.10016   0.00231   0.02893  -0.00167
  10        1PX         0.11498  -0.26630  -0.00224   0.01198   0.30823
  11        1PY         0.25779   0.15757   0.09759   0.25252  -0.08910
  12        1PZ        -0.02522  -0.01019   0.35815  -0.07704   0.01661
  13 4   C  1S         -0.07721   0.02849   0.01003   0.05530   0.04981
  14        1PX         0.39478   0.09823   0.02498   0.09996   0.15395
  15        1PY         0.15721  -0.18937  -0.03847  -0.17789   0.46281
  16        1PZ        -0.03377   0.02177   0.26776  -0.00777  -0.05889
  17 5   S  1S          0.50446   0.43438  -0.07124  -0.31230  -0.08504
  18        1PX        -0.22628   0.10723   0.00089  -0.10503  -0.15292
  19        1PY         0.03922  -0.00982  -0.00433  -0.07144  -0.18806
  20        1PZ         0.01701   0.02601   0.18718   0.01612   0.02072
  21 6   H  1S         -0.28410   0.21961   0.01100   0.12412   0.32017
  22 7   H  1S         -0.07657   0.26810  -0.06448  -0.25413   0.13210
  23 8   H  1S         -0.20543   0.11751   0.05382   0.14194  -0.34859
  24 9   C  1S          0.07470  -0.04665   0.00166   0.00257   0.00723
  25        1PX        -0.16390   0.24668  -0.04305  -0.04088  -0.26611
  26        1PY         0.09989   0.18231   0.12855   0.51109   0.05977
  27        1PZ        -0.01565  -0.00005   0.58413  -0.19212   0.00927
  28 10  H  1S          0.06712  -0.08897   0.44755  -0.12476   0.09220
  29 11  H  1S          0.13300   0.01668  -0.15122   0.40997   0.12429
  30 12  H  1S          0.00488  -0.18461  -0.28545  -0.27672   0.00346
                          11        12        13        14        15
                           O         O         O         O         O
     Eigenvalues --    -0.48603  -0.47214  -0.45688  -0.42118  -0.35680
   1 1   C  1S         -0.03651   0.00601   0.02463  -0.04717  -0.00901
   2        1PX         0.23460   0.04091   0.21927  -0.09089   0.02700
   3        1PY        -0.31542   0.03028   0.08758   0.24929   0.08551
   4        1PZ         0.00478   0.40132  -0.18975   0.01876  -0.55653
   5 2   C  1S          0.07147   0.02007   0.03854   0.06732  -0.00828
   6        1PX        -0.29990  -0.09183  -0.21234   0.09094   0.03852
   7        1PY         0.02775  -0.15092  -0.32683  -0.21448  -0.01272
   8        1PZ        -0.00687   0.32290  -0.19191   0.04631  -0.42164
   9 3   C  1S         -0.10975   0.02628   0.02906   0.06331   0.01288
  10        1PX         0.34248  -0.00317   0.10665   0.25177  -0.01435
  11        1PY         0.01784   0.18578   0.36297   0.03601   0.03057
  12        1PZ         0.04901   0.17934  -0.15661   0.03505   0.33591
  13 4   C  1S          0.07494  -0.03190  -0.00807  -0.04572   0.00598
  14        1PX        -0.29099   0.14036   0.16741  -0.27025   0.06247
  15        1PY        -0.08017  -0.04369  -0.21220  -0.05098   0.08743
  16        1PZ         0.10111   0.28242  -0.16633   0.01821   0.58252
  17 5   S  1S         -0.16290  -0.04607  -0.15348   0.46625   0.00391
  18        1PX         0.15843  -0.02549  -0.09261   0.54688   0.00375
  19        1PY         0.41834  -0.08590  -0.04798  -0.29811  -0.03497
  20        1PZ         0.06081   0.42384  -0.22587  -0.09262   0.11142
  21 6   H  1S         -0.07792   0.08406   0.19431   0.07553   0.01940
  22 7   H  1S          0.19196  -0.08026  -0.13912  -0.17804  -0.02091
  23 8   H  1S          0.19196   0.02251   0.12875   0.07857  -0.02167
  24 9   C  1S         -0.03181   0.00285  -0.01103  -0.03388   0.00637
  25        1PX        -0.38980   0.03915  -0.07772  -0.22244   0.02148
  26        1PY         0.03437  -0.27158  -0.32531   0.01642  -0.01321
  27        1PZ        -0.08410  -0.28746   0.16362  -0.02583  -0.08425
  28 10  H  1S          0.03715  -0.25353   0.15649   0.03442  -0.10182
  29 11  H  1S          0.17512  -0.06461  -0.28814   0.08230   0.03905
  30 12  H  1S          0.07668   0.31700   0.20672   0.03284   0.05467
                          16        17        18        19        20
                           O         V         V         V         V
     Eigenvalues --    -0.32513   0.01093   0.03083   0.04175   0.05839
   1 1   C  1S         -0.00128  -0.02853   0.23292  -0.20653   0.12305
   2        1PX        -0.01061  -0.05163   0.14322  -0.08627   0.07257
   3        1PY         0.00013   0.00195  -0.39651   0.34062  -0.14818
   4        1PZ        -0.00134   0.53895   0.03674  -0.15779  -0.36537
   5 2   C  1S          0.01464  -0.00565  -0.00653   0.01064  -0.02472
   6        1PX         0.03809   0.01721   0.03931   0.07483  -0.06257
   7        1PY        -0.01759  -0.00604  -0.00838   0.08077  -0.00743
   8        1PZ        -0.38648  -0.38165  -0.02311   0.28383   0.50613
   9 3   C  1S          0.01297  -0.00843  -0.02115  -0.01754   0.03035
  10        1PX         0.03255   0.00989   0.03255   0.03936   0.00971
  11        1PY        -0.03914  -0.02182  -0.04375   0.10309  -0.07271
  12        1PZ        -0.44407  -0.37909  -0.01285  -0.28110  -0.49647
  13 4   C  1S         -0.00303  -0.02579   0.22319   0.22156  -0.12657
  14        1PX        -0.01902  -0.01903   0.38646   0.35649  -0.16207
  15        1PY        -0.00947   0.05710   0.08486   0.11421  -0.01135
  16        1PZ        -0.12828   0.53578   0.02555   0.14177   0.35955
  17 5   S  1S          0.00631   0.03468  -0.27049  -0.00803   0.00172
  18        1PX         0.12103  -0.06872   0.55641   0.32160  -0.16799
  19        1PY        -0.05281   0.03650  -0.33808   0.53425  -0.29053
  20        1PZ         0.76522  -0.32689  -0.11558  -0.00892   0.00843
  21 6   H  1S         -0.01027   0.03001  -0.10438  -0.02889  -0.00809
  22 7   H  1S         -0.00711   0.00715   0.09986  -0.08696   0.04978
  23 8   H  1S         -0.00686   0.02986  -0.10762   0.02455   0.00733
  24 9   C  1S         -0.00379   0.00397   0.04385   0.04405  -0.02462
  25        1PX        -0.01539   0.00876   0.09444   0.09204  -0.05126
  26        1PY         0.00594  -0.00294   0.00290   0.01540  -0.01112
  27        1PZ         0.08980  -0.00609   0.00118  -0.01618  -0.04368
  28 10  H  1S          0.11784   0.07259  -0.00216   0.05278   0.11289
  29 11  H  1S         -0.05089  -0.03679  -0.00920  -0.05968  -0.04164
  30 12  H  1S         -0.06005  -0.04003  -0.00807  -0.01097  -0.06224
                          21        22        23        24        25
                           V         V         V         V         V
     Eigenvalues --     0.12664   0.15210   0.16078   0.16635   0.17135
   1 1   C  1S          0.20531  -0.07962   0.11481  -0.21512   0.02408
   2        1PX         0.00293   0.07898   0.08860  -0.37445  -0.00826
   3        1PY         0.10171  -0.05001   0.04470  -0.27841   0.01109
   4        1PZ         0.03305  -0.00873   0.01342  -0.05498  -0.01374
   5 2   C  1S         -0.37403  -0.08354   0.13058  -0.18663   0.00850
   6        1PX         0.20581   0.18939  -0.12874   0.05317  -0.04072
   7        1PY         0.34514  -0.01426   0.14519  -0.12597   0.00392
   8        1PZ        -0.02564   0.01422  -0.01300   0.01770   0.03983
   9 3   C  1S          0.43084  -0.21381  -0.25142   0.04974  -0.01182
  10        1PX         0.02708   0.47894  -0.07529  -0.14144  -0.02850
  11        1PY         0.35069   0.12834   0.21371   0.00989  -0.01167
  12        1PZ         0.00200   0.01727  -0.02305  -0.00957  -0.14771
  13 4   C  1S         -0.13880  -0.20673   0.25451   0.02477  -0.00391
  14        1PX         0.08548  -0.04630  -0.29077   0.02729   0.00393
  15        1PY         0.04060   0.24110   0.11784   0.04500   0.05196
  16        1PZ        -0.02259  -0.04493   0.00598  -0.00775   0.05499
  17 5   S  1S         -0.00792   0.02044  -0.00534  -0.00802  -0.00250
  18        1PX        -0.01003  -0.05532  -0.01363   0.06767   0.00465
  19        1PY        -0.04098  -0.06277  -0.06381   0.03100  -0.00726
  20        1PZ        -0.00393   0.01406  -0.00154   0.00416  -0.00868
  21 6   H  1S         -0.29955   0.05592  -0.17564   0.57278  -0.01941
  22 7   H  1S          0.15002   0.17678  -0.28489   0.27804  -0.02959
  23 8   H  1S          0.21388   0.39597  -0.18317   0.02588   0.03560
  24 9   C  1S         -0.15189   0.16946   0.07127  -0.02062   0.01326
  25        1PX        -0.27345   0.53920   0.06008  -0.18143  -0.05460
  26        1PY         0.10748   0.11769   0.47617   0.30562   0.00908
  27        1PZ        -0.01153   0.03471  -0.02080  -0.00110   0.69257
  28 10  H  1S          0.03077   0.02475  -0.01891  -0.04699  -0.58353
  29 11  H  1S         -0.08946  -0.00661  -0.38260  -0.25956   0.27963
  30 12  H  1S          0.16726   0.10366   0.33336   0.21216   0.25057
                          26        27        28        29        30
                           V         V         V         V         V
     Eigenvalues --     0.17519   0.18287   0.18654   0.19405   0.20446
   1 1   C  1S         -0.05008  -0.28629  -0.19211  -0.10012   0.13280
   2        1PX        -0.00377   0.26120   0.41054  -0.09160  -0.26653
   3        1PY        -0.15912  -0.22317   0.02471  -0.20150  -0.01708
   4        1PZ        -0.00961   0.00541   0.02702  -0.01591  -0.01279
   5 2   C  1S          0.22315   0.28921   0.17423  -0.10961  -0.06084
   6        1PX        -0.11046   0.32144   0.40829   0.16896  -0.34414
   7        1PY         0.24490   0.28812  -0.14449   0.34388   0.27093
   8        1PZ        -0.01295   0.01426   0.02421   0.00218  -0.02790
   9 3   C  1S         -0.02002   0.20789   0.07987  -0.00835   0.17593
  10        1PX        -0.22385   0.07874   0.03697   0.13778   0.43439
  11        1PY        -0.00372  -0.08866  -0.10797   0.50359  -0.26483
  12        1PZ         0.01087  -0.00324   0.00504  -0.02641   0.03201
  13 4   C  1S         -0.13969  -0.08989  -0.06743   0.23468  -0.20321
  14        1PX         0.07328   0.10431   0.04871  -0.25239   0.20752
  15        1PY         0.45996  -0.21879  -0.11680  -0.07597  -0.33260
  16        1PZ        -0.06335   0.02929   0.01282   0.01334   0.02654
  17 5   S  1S         -0.02742  -0.00063   0.01597  -0.00260   0.00091
  18        1PX         0.03899  -0.04150  -0.05803  -0.00085  -0.00378
  19        1PY        -0.06921   0.00081   0.02079  -0.03279   0.01374
  20        1PZ        -0.00148  -0.00662  -0.00118   0.00137  -0.00141
  21 6   H  1S          0.13673   0.19542  -0.09676   0.22570   0.05096
  22 7   H  1S         -0.40198  -0.30134   0.13798  -0.09264  -0.25114
  23 8   H  1S          0.50057  -0.08994  -0.02500  -0.26735  -0.05415
  24 9   C  1S          0.08036  -0.29347   0.36471   0.21154   0.25932
  25        1PX        -0.22035   0.08727  -0.25923   0.03378   0.03800
  26        1PY        -0.09881   0.11355   0.11141  -0.29846   0.13259
  27        1PZ        -0.05940   0.03657  -0.00848   0.02311  -0.00349
  28 10  H  1S         -0.07575   0.19031  -0.30833  -0.13547  -0.14536
  29 11  H  1S         -0.08372   0.17286  -0.38403   0.05621  -0.21712
  30 12  H  1S         -0.19963   0.30315  -0.21496  -0.30780  -0.06860
     Density Matrix:
                           1         2         3         4         5
   1 1   C  1S          1.25914
   2        1PX         0.06654   0.98706
   3        1PY         0.01163   0.03420   0.99139
   4        1PZ         0.01007  -0.00648  -0.02169   1.08793
   5 2   C  1S          0.29188  -0.48564   0.07746  -0.02196   1.24172
   6        1PX         0.48413  -0.61314   0.12516  -0.07674  -0.04796
   7        1PY        -0.06208   0.07442   0.14282   0.01376   0.05128
   8        1PZ         0.02715  -0.08505  -0.04245   0.87548  -0.00694
   9 3   C  1S         -0.03729   0.02853   0.03073   0.00425   0.25294
  10        1PX        -0.02868   0.01183   0.00529   0.00707   0.19233
  11        1PY        -0.00965   0.07167  -0.03976  -0.00380   0.39399
  12        1PZ        -0.01197  -0.01031   0.02920  -0.04631  -0.02031
  13 4   C  1S          0.00330   0.03280  -0.00629  -0.00563  -0.03932
  14        1PX         0.02199   0.02164   0.00760  -0.01443  -0.00859
  15        1PY        -0.02575   0.00075   0.02765  -0.02871  -0.04060
  16        1PZ        -0.00551   0.01184   0.02074  -0.27184   0.00437
  17 5   S  1S          0.13091   0.05816  -0.21975  -0.02015  -0.00038
  18        1PX        -0.10293   0.04280   0.20423   0.02376   0.02951
  19        1PY         0.47822   0.26282  -0.72855  -0.05483  -0.02485
  20        1PZ         0.03210   0.00156  -0.07982   0.36508   0.00194
  21 6   H  1S          0.58007   0.52877   0.56421   0.06246  -0.04020
  22 7   H  1S         -0.05290   0.06957   0.00611   0.00318   0.58090
  23 8   H  1S          0.03676   0.01914  -0.06312  -0.00761   0.05395
  24 9   C  1S          0.02116  -0.02327  -0.00217  -0.00404  -0.02867
  25        1PX         0.04103  -0.04178  -0.00212  -0.00949  -0.04989
  26        1PY         0.00684  -0.00697   0.00383   0.00047  -0.02094
  27        1PZ         0.00166   0.00126  -0.00223  -0.01014   0.00151
  28 10  H  1S         -0.00290   0.00614  -0.00330   0.00388   0.01351
  29 11  H  1S         -0.00187  -0.00687   0.00689  -0.00021  -0.01396
  30 12  H  1S         -0.00967   0.01559  -0.00208  -0.00022   0.03974
                           6         7         8         9        10
   6        1PX         0.92030
   7        1PY        -0.04057   0.96301
   8        1PZ        -0.01275   0.00143   1.02483
   9 3   C  1S         -0.23834  -0.39153  -0.00783   1.24014
  10        1PX        -0.08464  -0.27931  -0.01622  -0.03880   0.95049
  11        1PY        -0.36838  -0.49776   0.00755   0.02026   0.00055
  12        1PZ         0.00101   0.03661   0.38532  -0.00586  -0.00667
  13 4   C  1S         -0.00482   0.03747  -0.01236   0.29906   0.29012
  14        1PX        -0.06099  -0.04358  -0.02888  -0.32937  -0.14379
  15        1PY         0.02901   0.03855  -0.00770   0.37717   0.34377
  16        1PZ         0.00695  -0.00616  -0.03979  -0.02728  -0.04495
  17 5   S  1S         -0.00091   0.02251   0.01474  -0.00137  -0.01828
  18        1PX        -0.01541  -0.02896  -0.03652   0.04477   0.04578
  19        1PY        -0.08291   0.01160  -0.00135  -0.01598   0.01040
  20        1PZ         0.02092   0.00437  -0.25830   0.00018   0.00303
  21 6   H  1S         -0.05272   0.01661   0.00694   0.05737   0.03689
  22 7   H  1S         -0.37219   0.68125  -0.02528  -0.05304  -0.04315
  23 8   H  1S         -0.03847  -0.06957   0.00253  -0.03642  -0.04393
  24 9   C  1S          0.02232   0.02613   0.00024   0.22578  -0.38271
  25        1PX         0.03235   0.06637   0.00001   0.50715  -0.69519
  26        1PY         0.00451   0.01377   0.00091   0.04766  -0.06432
  27        1PZ        -0.00008   0.00276  -0.01090   0.01822  -0.02948
  28 10  H  1S         -0.00712  -0.01804  -0.04038  -0.02246   0.04011
  29 11  H  1S          0.01243   0.02291   0.01923  -0.02282   0.03975
  30 12  H  1S         -0.03524  -0.04775   0.01923  -0.02566   0.04273
                          11        12        13        14        15
  11        1PY         0.90611
  12        1PZ         0.01301   1.01201
  13 4   C  1S         -0.38018   0.03235   1.25700
  14        1PX         0.40536  -0.00350   0.02738   0.95358
  15        1PY        -0.31593   0.11861  -0.06537   0.02184   1.01701
  16        1PZ         0.08305   0.86205   0.01117   0.01692   0.02109
  17 5   S  1S         -0.01133   0.01497   0.13184   0.21818   0.06574
  18        1PX        -0.03996  -0.02015  -0.46452  -0.72175  -0.20996
  19        1PY        -0.06463   0.02739  -0.15934  -0.26424   0.04422
  20        1PZ        -0.02536  -0.25032   0.04308   0.08989   0.05106
  21 6   H  1S          0.07044   0.00012   0.03480   0.06433   0.01524
  22 7   H  1S         -0.06714   0.00185   0.04622  -0.02285   0.04003
  23 8   H  1S          0.03782   0.00712   0.57966  -0.20355  -0.74407
  24 9   C  1S         -0.02375  -0.00673  -0.02739   0.02407  -0.01673
  25        1PX        -0.04379  -0.01713  -0.05170   0.02767  -0.05842
  26        1PY         0.09467  -0.00104   0.01176   0.01000  -0.00061
  27        1PZ         0.00016   0.14847  -0.00096  -0.00104  -0.00972
  28 10  H  1S          0.00202   0.02974   0.01203  -0.01004   0.00114
  29 11  H  1S          0.01896  -0.01877   0.04161  -0.02898   0.04043
  30 12  H  1S         -0.01448  -0.01272  -0.01199   0.01374  -0.00655
                          16        17        18        19        20
  16        1PZ         1.10269
  17 5   S  1S         -0.02444   1.84794
  18        1PX         0.07918   0.31852   1.07892
  19        1PY         0.02094  -0.17880  -0.06571   0.99470
  20        1PZ         0.35505  -0.04070   0.09264  -0.03901   1.75854
  21 6   H  1S         -0.00859  -0.04689   0.04929  -0.08630  -0.01217
  22 7   H  1S         -0.01128   0.02153  -0.03974   0.10924   0.01256
  23 8   H  1S          0.08453  -0.04724   0.09955   0.00029  -0.01386
  24 9   C  1S          0.00306   0.00842  -0.05052  -0.00945   0.00596
  25        1PX         0.00582   0.01962  -0.10475  -0.02022   0.01341
  26        1PY        -0.00100  -0.00165  -0.00000   0.00309  -0.00151
  27        1PZ        -0.04077  -0.00024  -0.00297  -0.00229   0.00786
  28 10  H  1S         -0.10803  -0.00465   0.01557  -0.00276   0.03727
  29 11  H  1S          0.05107  -0.00266   0.02390   0.01296  -0.02085
  30 12  H  1S          0.05411  -0.00010  -0.00277  -0.00471  -0.02161
                          21        22        23        24        25
  21 6   H  1S          0.83072
  22 7   H  1S         -0.01162   0.84750
  23 8   H  1S         -0.01185  -0.01782   0.83031
  24 9   C  1S         -0.00833  -0.00363  -0.00941   1.20092
  25        1PX        -0.01676  -0.00226  -0.01320  -0.05768   0.89786
  26        1PY        -0.00436   0.00083  -0.00130  -0.00611  -0.01345
  27        1PZ        -0.00075   0.00148   0.00022  -0.00227  -0.00587
  28 10  H  1S          0.00290   0.00094   0.00173   0.49920  -0.29362
  29 11  H  1S         -0.00511   0.01240   0.00287   0.49965  -0.30384
  30 12  H  1S          0.01192  -0.00353   0.01341   0.50181  -0.18449
                          26        27        28        29        30
  26        1PY         1.02453
  27        1PZ        -0.00174   1.02178
  28 10  H  1S          0.01440   0.79593   0.91612
  29 11  H  1S          0.66037  -0.44462  -0.04887   0.91720
  30 12  H  1S         -0.73924  -0.37812  -0.05100  -0.05172   0.91856
    Full Mulliken population analysis:
                           1         2         3         4         5
   1 1   C  1S          1.25914
   2        1PX         0.00000   0.98706
   3        1PY         0.00000   0.00000   0.99139
   4        1PZ         0.00000   0.00000   0.00000   1.08793
   5 2   C  1S          0.00000   0.00000   0.00000   0.00000   1.24172
   6        1PX         0.00000   0.00000   0.00000   0.00000   0.00000
   7        1PY         0.00000   0.00000   0.00000   0.00000   0.00000
   8        1PZ         0.00000   0.00000   0.00000   0.00000   0.00000
   9 3   C  1S          0.00000   0.00000   0.00000   0.00000   0.00000
  10        1PX         0.00000   0.00000   0.00000   0.00000   0.00000
  11        1PY         0.00000   0.00000   0.00000   0.00000   0.00000
  12        1PZ         0.00000   0.00000   0.00000   0.00000   0.00000
  13 4   C  1S          0.00000   0.00000   0.00000   0.00000   0.00000
  14        1PX         0.00000   0.00000   0.00000   0.00000   0.00000
  15        1PY         0.00000   0.00000   0.00000   0.00000   0.00000
  16        1PZ         0.00000   0.00000   0.00000   0.00000   0.00000
  17 5   S  1S          0.00000   0.00000   0.00000   0.00000   0.00000
  18        1PX         0.00000   0.00000   0.00000   0.00000   0.00000
  19        1PY         0.00000   0.00000   0.00000   0.00000   0.00000
  20        1PZ         0.00000   0.00000   0.00000   0.00000   0.00000
  21 6   H  1S          0.00000   0.00000   0.00000   0.00000   0.00000
  22 7   H  1S          0.00000   0.00000   0.00000   0.00000   0.00000
  23 8   H  1S          0.00000   0.00000   0.00000   0.00000   0.00000
  24 9   C  1S          0.00000   0.00000   0.00000   0.00000   0.00000
  25        1PX         0.00000   0.00000   0.00000   0.00000   0.00000
  26        1PY         0.00000   0.00000   0.00000   0.00000   0.00000
  27        1PZ         0.00000   0.00000   0.00000   0.00000   0.00000
  28 10  H  1S          0.00000   0.00000   0.00000   0.00000   0.00000
  29 11  H  1S          0.00000   0.00000   0.00000   0.00000   0.00000
  30 12  H  1S          0.00000   0.00000   0.00000   0.00000   0.00000
                           6         7         8         9        10
   6        1PX         0.92030
   7        1PY         0.00000   0.96301
   8        1PZ         0.00000   0.00000   1.02483
   9 3   C  1S          0.00000   0.00000   0.00000   1.24014
  10        1PX         0.00000   0.00000   0.00000   0.00000   0.95049
  11        1PY         0.00000   0.00000   0.00000   0.00000   0.00000
  12        1PZ         0.00000   0.00000   0.00000   0.00000   0.00000
  13 4   C  1S          0.00000   0.00000   0.00000   0.00000   0.00000
  14        1PX         0.00000   0.00000   0.00000   0.00000   0.00000
  15        1PY         0.00000   0.00000   0.00000   0.00000   0.00000
  16        1PZ         0.00000   0.00000   0.00000   0.00000   0.00000
  17 5   S  1S          0.00000   0.00000   0.00000   0.00000   0.00000
  18        1PX         0.00000   0.00000   0.00000   0.00000   0.00000
  19        1PY         0.00000   0.00000   0.00000   0.00000   0.00000
  20        1PZ         0.00000   0.00000   0.00000   0.00000   0.00000
  21 6   H  1S          0.00000   0.00000   0.00000   0.00000   0.00000
  22 7   H  1S          0.00000   0.00000   0.00000   0.00000   0.00000
  23 8   H  1S          0.00000   0.00000   0.00000   0.00000   0.00000
  24 9   C  1S          0.00000   0.00000   0.00000   0.00000   0.00000
  25        1PX         0.00000   0.00000   0.00000   0.00000   0.00000
  26        1PY         0.00000   0.00000   0.00000   0.00000   0.00000
  27        1PZ         0.00000   0.00000   0.00000   0.00000   0.00000
  28 10  H  1S          0.00000   0.00000   0.00000   0.00000   0.00000
  29 11  H  1S          0.00000   0.00000   0.00000   0.00000   0.00000
  30 12  H  1S          0.00000   0.00000   0.00000   0.00000   0.00000
                          11        12        13        14        15
  11        1PY         0.90611
  12        1PZ         0.00000   1.01201
  13 4   C  1S          0.00000   0.00000   1.25700
  14        1PX         0.00000   0.00000   0.00000   0.95358
  15        1PY         0.00000   0.00000   0.00000   0.00000   1.01701
  16        1PZ         0.00000   0.00000   0.00000   0.00000   0.00000
  17 5   S  1S          0.00000   0.00000   0.00000   0.00000   0.00000
  18        1PX         0.00000   0.00000   0.00000   0.00000   0.00000
  19        1PY         0.00000   0.00000   0.00000   0.00000   0.00000
  20        1PZ         0.00000   0.00000   0.00000   0.00000   0.00000
  21 6   H  1S          0.00000   0.00000   0.00000   0.00000   0.00000
  22 7   H  1S          0.00000   0.00000   0.00000   0.00000   0.00000
  23 8   H  1S          0.00000   0.00000   0.00000   0.00000   0.00000
  24 9   C  1S          0.00000   0.00000   0.00000   0.00000   0.00000
  25        1PX         0.00000   0.00000   0.00000   0.00000   0.00000
  26        1PY         0.00000   0.00000   0.00000   0.00000   0.00000
  27        1PZ         0.00000   0.00000   0.00000   0.00000   0.00000
  28 10  H  1S          0.00000   0.00000   0.00000   0.00000   0.00000
  29 11  H  1S          0.00000   0.00000   0.00000   0.00000   0.00000
  30 12  H  1S          0.00000   0.00000   0.00000   0.00000   0.00000
                          16        17        18        19        20
  16        1PZ         1.10269
  17 5   S  1S          0.00000   1.84794
  18        1PX         0.00000   0.00000   1.07892
  19        1PY         0.00000   0.00000   0.00000   0.99470
  20        1PZ         0.00000   0.00000   0.00000   0.00000   1.75854
  21 6   H  1S          0.00000   0.00000   0.00000   0.00000   0.00000
  22 7   H  1S          0.00000   0.00000   0.00000   0.00000   0.00000
  23 8   H  1S          0.00000   0.00000   0.00000   0.00000   0.00000
  24 9   C  1S          0.00000   0.00000   0.00000   0.00000   0.00000
  25        1PX         0.00000   0.00000   0.00000   0.00000   0.00000
  26        1PY         0.00000   0.00000   0.00000   0.00000   0.00000
  27        1PZ         0.00000   0.00000   0.00000   0.00000   0.00000
  28 10  H  1S          0.00000   0.00000   0.00000   0.00000   0.00000
  29 11  H  1S          0.00000   0.00000   0.00000   0.00000   0.00000
  30 12  H  1S          0.00000   0.00000   0.00000   0.00000   0.00000
                          21        22        23        24        25
  21 6   H  1S          0.83072
  22 7   H  1S          0.00000   0.84750
  23 8   H  1S          0.00000   0.00000   0.83031
  24 9   C  1S          0.00000   0.00000   0.00000   1.20092
  25        1PX         0.00000   0.00000   0.00000   0.00000   0.89786
  26        1PY         0.00000   0.00000   0.00000   0.00000   0.00000
  27        1PZ         0.00000   0.00000   0.00000   0.00000   0.00000
  28 10  H  1S          0.00000   0.00000   0.00000   0.00000   0.00000
  29 11  H  1S          0.00000   0.00000   0.00000   0.00000   0.00000
  30 12  H  1S          0.00000   0.00000   0.00000   0.00000   0.00000
                          26        27        28        29        30
  26        1PY         1.02453
  27        1PZ         0.00000   1.02178
  28 10  H  1S          0.00000   0.00000   0.91612
  29 11  H  1S          0.00000   0.00000   0.00000   0.91720
  30 12  H  1S          0.00000   0.00000   0.00000   0.00000   0.91856
     Gross orbital populations:
                           1
   1 1   C  1S          1.25914
   2        1PX         0.98706
   3        1PY         0.99139
   4        1PZ         1.08793
   5 2   C  1S          1.24172
   6        1PX         0.92030
   7        1PY         0.96301
   8        1PZ         1.02483
   9 3   C  1S          1.24014
  10        1PX         0.95049
  11        1PY         0.90611
  12        1PZ         1.01201
  13 4   C  1S          1.25700
  14        1PX         0.95358
  15        1PY         1.01701
  16        1PZ         1.10269
  17 5   S  1S          1.84794
  18        1PX         1.07892
  19        1PY         0.99470
  20        1PZ         1.75854
  21 6   H  1S          0.83072
  22 7   H  1S          0.84750
  23 8   H  1S          0.83031
  24 9   C  1S          1.20092
  25        1PX         0.89786
  26        1PY         1.02453
  27        1PZ         1.02178
  28 10  H  1S          0.91612
  29 11  H  1S          0.91720
  30 12  H  1S          0.91856
          Condensed to atoms (all electrons):
               1          2          3          4          5          6
     1  C    4.325517   0.000000   0.000000   0.000000   0.000000   0.000000
     2  C    0.000000   4.149864   0.000000   0.000000   0.000000   0.000000
     3  C    0.000000   0.000000   4.108747   0.000000   0.000000   0.000000
     4  C    0.000000   0.000000   0.000000   4.330271   0.000000   0.000000
     5  S    0.000000   0.000000   0.000000   0.000000   5.680104   0.000000
     6  H    0.000000   0.000000   0.000000   0.000000   0.000000   0.830716
     7  H    0.000000   0.000000   0.000000   0.000000   0.000000   0.000000
     8  H    0.000000   0.000000   0.000000   0.000000   0.000000   0.000000
     9  C    0.000000   0.000000   0.000000   0.000000   0.000000   0.000000
    10  H    0.000000   0.000000   0.000000   0.000000   0.000000   0.000000
    11  H    0.000000   0.000000   0.000000   0.000000   0.000000   0.000000
    12  H    0.000000   0.000000   0.000000   0.000000   0.000000   0.000000
               7          8          9         10         11         12
     1  C    0.000000   0.000000   0.000000   0.000000   0.000000   0.000000
     2  C    0.000000   0.000000   0.000000   0.000000   0.000000   0.000000
     3  C    0.000000   0.000000   0.000000   0.000000   0.000000   0.000000
     4  C    0.000000   0.000000   0.000000   0.000000   0.000000   0.000000
     5  S    0.000000   0.000000   0.000000   0.000000   0.000000   0.000000
     6  H    0.000000   0.000000   0.000000   0.000000   0.000000   0.000000
     7  H    0.847498   0.000000   0.000000   0.000000   0.000000   0.000000
     8  H    0.000000   0.830311   0.000000   0.000000   0.000000   0.000000
     9  C    0.000000   0.000000   4.145093   0.000000   0.000000   0.000000
    10  H    0.000000   0.000000   0.000000   0.916118   0.000000   0.000000
    11  H    0.000000   0.000000   0.000000   0.000000   0.917199   0.000000
    12  H    0.000000   0.000000   0.000000   0.000000   0.000000   0.918561
 Mulliken charges:
               1
     1  C   -0.325517
     2  C   -0.149864
     3  C   -0.108747
     4  C   -0.330271
     5  S    0.319896
     6  H    0.169284
     7  H    0.152502
     8  H    0.169689
     9  C   -0.145093
    10  H    0.083882
    11  H    0.082801
    12  H    0.081439
 Sum of Mulliken charges =  -0.00000
 Mulliken charges with hydrogens summed into heavy atoms:
               1
     1  C   -0.156233
     2  C    0.002637
     3  C   -0.108747
     4  C   -0.160581
     5  S    0.319896
     9  C    0.103029
 Charge=             -0.0000 electrons
 Dipole moment (field-independent basis, Debye):
    X=             -0.7970    Y=              0.3279    Z=              0.0875  Tot=              0.8663
 N-N= 1.266257869977D+02 E-N=-1.801349882594D+02  KE=-5.200119042293D+01
 Orbital energies and kinetic energies (alpha):
                                 1                 2
   1         O                -1.365030         -2.380955
   2         O                -1.165370         -2.088715
   3         O                -1.044889         -1.938063
   4         O                -0.852841         -1.806276
   5         O                -0.724805         -1.643751
   6         O                -0.671765         -1.673452
   7         O                -0.580804         -1.535848
   8         O                -0.535739         -1.302653
   9         O                -0.522083         -1.264844
  10         O                -0.515623         -1.306843
  11         O                -0.486031         -1.504606
  12         O                -0.472140         -1.431487
  13         O                -0.456877         -1.331875
  14         O                -0.421181         -1.685071
  15         O                -0.356795         -1.474532
  16         O                -0.325133         -1.631623
  17         V                 0.010926         -1.406775
  18         V                 0.030832         -1.490469
  19         V                 0.041750         -1.450654
  20         V                 0.058385         -1.368227
  21         V                 0.126644         -1.176869
  22         V                 0.152104         -1.103609
  23         V                 0.160781         -0.896451
  24         V                 0.166346         -0.757338
  25         V                 0.171351         -0.787139
  26         V                 0.175195         -0.791099
  27         V                 0.182866         -1.009770
  28         V                 0.186541         -0.968038
  29         V                 0.194052         -1.029189
  30         V                 0.204456         -1.128107
 Total kinetic energy from orbitals=-5.200119042293D+01
 Calling FoFJK, ICntrl=      2127 FMM=F ISym2X=0 I1Cent= 0 IOpClX= 0 NMat=1 NMatS=1 NMatT=0.
 ***** Axes restored to original set *****
 -------------------------------------------------------------------
 Center     Atomic                   Forces (Hartrees/Bohr)
 Number     Number              X              Y              Z
 -------------------------------------------------------------------
      1        6           0.014365028    0.047520082   -0.006216480
      2        6           0.011245675    0.076969068    0.007691105
      3        6           0.010828749   -0.051963825   -0.004353588
      4        6          -0.021447938   -0.041552050   -0.012069957
      5       16           0.034772438   -0.015000833    0.015608520
      6        1          -0.012343715   -0.005897711   -0.002597614
      7        1           0.013867601   -0.006947422    0.000710861
      8        1          -0.004626471    0.012951041   -0.001346425
      9        6          -0.076196779   -0.022178811    0.002518454
     10        1           0.011658293   -0.001167379    0.033006986
     11        1           0.014938766   -0.024306686   -0.019384926
     12        1           0.002938354    0.031574526   -0.013566934
 -------------------------------------------------------------------
 Cartesian Forces:  Max     0.076969068 RMS     0.026872008

 GradGradGradGradGradGradGradGradGradGradGradGradGradGradGradGradGradGrad
 Berny optimization.
 FormGI is forming the generalized inverse of G from B-inverse, IUseBI=4.
 Internal  Forces:  Max     0.081121103 RMS     0.017779823
 Search for a local minimum.
 Step number   1 out of a maximum of   63
 All quantities printed in internal units (Hartrees-Bohrs-Radians)
 Mixed Optimization -- RFO/linear search
 Second derivative matrix not updated -- first step.
 ITU=  0
     Eigenvalues ---    0.00237   0.00809   0.01035   0.01371   0.01919
     Eigenvalues ---    0.02031   0.02087   0.07243   0.07243   0.15998
     Eigenvalues ---    0.16000   0.16000   0.16000   0.16000   0.16000
     Eigenvalues ---    0.22391   0.23414   0.24998   0.27163   0.27943
     Eigenvalues ---    0.28274   0.28519   0.37230   0.37230   0.37230
     Eigenvalues ---    0.37230   0.37230   0.37230   0.49113   0.52451
 RFO step:  Lambda=-5.05303521D-02 EMin= 2.36824351D-03
 Linear search not attempted -- first point.
 Maximum step size (   0.300) exceeded in Quadratic search.
    -- Step size scaled by   0.792
 Iteration  1 RMS(Cart)=  0.06943174 RMS(Int)=  0.00104028
 Iteration  2 RMS(Cart)=  0.00099348 RMS(Int)=  0.00027986
 Iteration  3 RMS(Cart)=  0.00000097 RMS(Int)=  0.00027986
 Variable       Old X    -DE/DX   Delta X   Delta X   Delta X     New X
                                 (Linear)    (Quad)   (Total)
    R1        2.56956  -0.00704   0.00000  -0.00978  -0.00978   2.55978
    R2        3.34710  -0.03659   0.00000  -0.08574  -0.08586   3.26124
    R3        2.02201   0.01161   0.00000   0.02175   0.02175   2.04376
    R4        2.93302  -0.08112   0.00000  -0.19851  -0.19839   2.73463
    R5        2.02201   0.01340   0.00000   0.02512   0.02512   2.04713
    R6        2.56956  -0.00754   0.00000  -0.01048  -0.01039   2.55917
    R7        2.91018  -0.04905   0.00000  -0.11578  -0.11578   2.79440
    R8        3.34710  -0.03734   0.00000  -0.08753  -0.08759   3.25951
    R9        2.02201   0.01151   0.00000   0.02156   0.02156   2.04357
   R10        2.02201   0.03499   0.00000   0.06558   0.06558   2.08759
   R11        2.02201   0.03446   0.00000   0.06458   0.06458   2.08659
   R12        2.02201   0.03445   0.00000   0.06456   0.06456   2.08657
    A1        1.92984   0.00662   0.00000   0.02154   0.02080   1.95064
    A2        2.17658   0.00357   0.00000   0.01508   0.01526   2.19184
    A3        2.17676  -0.01019   0.00000  -0.03673  -0.03654   2.14022
    A4        1.95701  -0.00048   0.00000  -0.00063  -0.00104   1.95597
    A5        2.16316   0.00788   0.00000   0.02913   0.02929   2.19245
    A6        2.16295  -0.00740   0.00000  -0.02835  -0.02819   2.13476
    A7        1.95703   0.00232   0.00000   0.00677   0.00647   1.96351
    A8        2.16295  -0.00946   0.00000  -0.02524  -0.02509   2.13786
    A9        2.16314   0.00714   0.00000   0.01852   0.01866   2.18181
   A10        1.92985   0.00532   0.00000   0.01763   0.01703   1.94688
   A11        2.17658   0.00416   0.00000   0.01682   0.01695   2.19352
   A12        2.17675  -0.00949   0.00000  -0.03456  -0.03444   2.14232
   A13        1.62885  -0.01238   0.00000  -0.02852  -0.02969   1.59916
   A14        1.91063  -0.00162   0.00000  -0.00632  -0.00634   1.90430
   A15        1.91063  -0.00145   0.00000  -0.00537  -0.00539   1.90525
   A16        1.91063  -0.00175   0.00000  -0.00643  -0.00645   1.90418
   A17        1.91063   0.00140   0.00000   0.00498   0.00496   1.91559
   A18        1.91063   0.00161   0.00000   0.00591   0.00589   1.91652
   A19        1.91063   0.00180   0.00000   0.00723   0.00721   1.91785
    D1        0.13247  -0.00367   0.00000  -0.05046  -0.05104   0.08143
    D2       -3.02143  -0.00321   0.00000  -0.03722  -0.03736  -3.05879
    D3       -3.00494  -0.00134   0.00000  -0.02201  -0.02216  -3.02711
    D4        0.12434  -0.00088   0.00000  -0.00876  -0.00849   0.11586
    D5       -0.17902   0.00604   0.00000   0.06913   0.06869  -0.11033
    D6        2.95840   0.00375   0.00000   0.04082   0.04095   2.99934
    D7       -0.00032   0.00018   0.00000   0.00314   0.00309   0.00277
    D8        3.12995   0.00030   0.00000   0.00839   0.00838   3.13833
    D9       -3.12960  -0.00041   0.00000  -0.01059  -0.01054  -3.14014
   D10        0.00066  -0.00029   0.00000  -0.00533  -0.00524  -0.00458
   D11       -0.13200   0.00344   0.00000   0.04592   0.04640  -0.08560
   D12        3.00541   0.00109   0.00000   0.01823   0.01833   3.02374
   D13        3.02092   0.00345   0.00000   0.04099   0.04129   3.06221
   D14       -0.12486   0.00110   0.00000   0.01330   0.01322  -0.11164
   D15       -1.56447   0.00004   0.00000  -0.00196  -0.00201  -1.56648
   D16        0.52992  -0.00013   0.00000  -0.00302  -0.00307   0.52685
   D17        2.62432   0.00012   0.00000  -0.00140  -0.00145   2.62287
   D18        1.56447   0.00012   0.00000   0.00378   0.00383   1.56830
   D19       -2.62432  -0.00005   0.00000   0.00272   0.00277  -2.62154
   D20       -0.52992   0.00020   0.00000   0.00435   0.00439  -0.52553
   D21        0.17883  -0.00613   0.00000  -0.06783  -0.06724   0.11159
   D22       -2.95858  -0.00382   0.00000  -0.04029  -0.04027  -2.99885
         Item               Value     Threshold  Converged?
 Maximum Force            0.081121     0.000450     NO 
 RMS     Force            0.017780     0.000300     NO 
 Maximum Displacement     0.178764     0.001800     NO 
 RMS     Displacement     0.069350     0.001200     NO 
 Predicted change in Energy=-2.699470D-02
 GradGradGradGradGradGradGradGradGradGradGradGradGradGradGradGradGradGrad

                          Input orientation:                          
 ---------------------------------------------------------------------
 Center     Atomic      Atomic             Coordinates (Angstroms)
 Number     Number       Type             X           Y           Z
 ---------------------------------------------------------------------
      1          6           0       -0.956016    1.350726   -0.024551
      2          6           0        0.396822    1.374345   -0.089009
      3          6           0        0.922050    2.719737    0.001363
      4          6           0       -0.053910    3.649338    0.133103
      5         16           0       -1.622628    2.942077    0.014636
      6          1           0       -1.568021    0.460681    0.029639
      7          1           0        1.038519    0.508216   -0.196565
      8          1           0        0.099966    4.703119    0.321032
      9          6           0        2.371167    3.011193   -0.040610
     10          1           0        2.774313    2.989586    0.987678
     11          1           0        2.876992    2.246524   -0.655937
     12          1           0        2.525947    4.011275   -0.482265
 ---------------------------------------------------------------------
                    Distance matrix (angstroms):
                    1          2          3          4          5
     1  C    0.000000
     2  C    1.354579   0.000000
     3  C    2.324219   1.447105   0.000000
     4  C    2.474322   2.329826   1.354257   0.000000
     5  S    1.725776   2.558652   2.554407   1.724856   0.000000
     6  H    1.081512   2.170130   3.362229   3.531398   2.482042
     7  H    2.172000   1.083293   2.223413   3.341965   3.612477
     8  H    3.531722   3.367046   2.170672   1.081411   2.482434
     9  C    3.718542   2.565083   1.478732   2.513643   3.994774
    10  H    4.198312   3.069319   2.115777   3.027278   4.503571
    11  H    3.986610   2.689489   2.116075   3.343749   4.602178
    12  H    4.405916   3.411924   2.115291   2.676815   4.312861
                    6          7          8          9         10
     6  H    0.000000
     7  H    2.616769   0.000000
     8  H    4.567863   4.329665   0.000000
     9  C    4.693319   2.839923   2.855128   0.000000
    10  H    5.115571   3.251554   3.245419   1.104703   0.000000
    11  H    4.839152   2.571521   3.834215   1.104176   1.806697
    12  H    5.443284   3.816476   2.647512   1.104166   1.807282
                   11         12
    11  H    0.000000
    12  H    1.807690   0.000000
 Stoichiometry    C5H6S
 Framework group  C1[X(C5H6S)]
 Deg. of freedom    30
 Full point group                 C1      NOp   1
 Largest Abelian subgroup         C1      NOp   1
 Largest concise Abelian subgroup C1      NOp   1
                         Standard orientation:                         
 ---------------------------------------------------------------------
 Center     Atomic      Atomic             Coordinates (Angstroms)
 Number     Number       Type             X           Y           Z
 ---------------------------------------------------------------------
      1          6           0        1.024825    1.148667    0.037120
      2          6           0       -0.325127    1.252822   -0.003654
      3          6           0       -0.970975   -0.042110    0.008376
      4          6           0       -0.083300   -1.063517    0.061007
      5         16           0        1.542338   -0.495877   -0.040072
      6          1           0        1.716900    1.973609    0.137971
      7          1           0       -0.885540    2.179079   -0.042500
      8          1           0       -0.331307   -2.109066    0.182532
      9          6           0       -2.441199   -0.196801   -0.025674
     10          1           0       -2.827789   -0.207207    1.009125
     11          1           0       -2.882011    0.650147   -0.580264
     12          1           0       -2.693005   -1.146897   -0.528758
 ---------------------------------------------------------------------
 Rotational constants (GHZ):           6.8975293           2.5048157           1.8621939
 Standard basis: VSTO-6G (5D, 7F)
 There are    30 symmetry adapted cartesian basis functions of A   symmetry.
 There are    30 symmetry adapted basis functions of A   symmetry.
    30 basis functions,   180 primitive gaussians,    30 cartesian basis functions
    16 alpha electrons       16 beta electrons
       nuclear repulsion energy       128.2624364508 Hartrees.



 Warning!  S  atom    5 may be hypervalent but has no d functions.



 Integral buffers will be    131072 words long.
 Regular integral format.
 Two-electron integral symmetry is turned off.
 Do NDO integrals.
 One-electron integrals computed using PRISM.
 NBasis=    30 RedAO= F EigKep=  0.00D+00  NBF=    30
 NBsUse=    30 1.00D-04 EigRej=  0.00D+00 NBFU=    30
 Initial guess from the checkpoint file:  "meth_thiophene_opt.chk"
 B after Tr=    -0.000000    0.000000    0.000000
         Rot=    0.999847   -0.000979   -0.000123   -0.017478 Ang=  -2.01 deg.
 Keep J ints in memory in canonical form, NReq=861564.
 Overlap will be assumed to be unity.
 Requested convergence on RMS density matrix=1.00D-08 within 128 cycles.
 Requested convergence on MAX density matrix=1.00D-06.
 Requested convergence on             energy=1.00D-06.
 No special actions if energy rises.
 SCF Done:  E(RAM1) =  0.361492487381E-01 A.U. after   13 cycles
            NFock= 12  Conv=0.23D-08     -V/T= 1.0007
 Calling FoFJK, ICntrl=      2127 FMM=F ISym2X=0 I1Cent= 0 IOpClX= 0 NMat=1 NMatS=1 NMatT=0.
 ***** Axes restored to original set *****
 -------------------------------------------------------------------
 Center     Atomic                   Forces (Hartrees/Bohr)
 Number     Number              X              Y              Z
 -------------------------------------------------------------------
      1        6          -0.020193575    0.016329997   -0.001212469
      2        6           0.010736044    0.009056206    0.000245864
      3        6           0.017581400   -0.014605843   -0.001788290
      4        6          -0.031554550    0.003093165   -0.001922058
      5       16           0.025630279   -0.010675674    0.008689648
      6        1          -0.005194776   -0.002321093   -0.003155157
      7        1           0.004681850   -0.005232678    0.000921880
      8        1          -0.001897769    0.005499574   -0.002706814
      9        6          -0.017490433   -0.004573066    0.000672085
     10        1           0.006010619    0.000321810    0.007922613
     11        1           0.006962020   -0.005137370   -0.004547427
     12        1           0.004728890    0.008244971   -0.003119874
 -------------------------------------------------------------------
 Cartesian Forces:  Max     0.031554550 RMS     0.010553807

 GradGradGradGradGradGradGradGradGradGradGradGradGradGradGradGradGradGrad
 Berny optimization.
 Using GEDIIS/GDIIS optimizer.
 FormGI is forming the generalized inverse of G from B-inverse, IUseBI=4.
 Internal  Forces:  Max     0.021182407 RMS     0.006148215
 Search for a local minimum.
 Step number   2 out of a maximum of   63
 All quantities printed in internal units (Hartrees-Bohrs-Radians)
 Mixed Optimization -- RFO/linear search
 Update second derivatives using D2CorX and points    1    2
 DE= -2.44D-02 DEPred=-2.70D-02 R= 9.05D-01
 TightC=F SS=  1.41D+00  RLast= 3.34D-01 DXNew= 5.0454D-01 1.0018D+00
 Trust test= 9.05D-01 RLast= 3.34D-01 DXMaxT set to 5.05D-01
 ITU=  1  0
 Use linear search instead of GDIIS.
     Eigenvalues ---    0.00237   0.00826   0.01057   0.01384   0.01919
     Eigenvalues ---    0.02060   0.02112   0.07307   0.07317   0.15637
     Eigenvalues ---    0.15991   0.15998   0.16000   0.16000   0.16220
     Eigenvalues ---    0.22424   0.23496   0.24449   0.25194   0.27916
     Eigenvalues ---    0.28176   0.35085   0.36368   0.37230   0.37230
     Eigenvalues ---    0.37230   0.37230   0.37938   0.48909   0.61250
 RFO step:  Lambda=-8.05082144D-03 EMin= 2.36822844D-03
 Quartic linear search produced a step of  0.15599.
 Iteration  1 RMS(Cart)=  0.05420820 RMS(Int)=  0.00319274
 Iteration  2 RMS(Cart)=  0.00367118 RMS(Int)=  0.00121984
 Iteration  3 RMS(Cart)=  0.00000669 RMS(Int)=  0.00121983
 Iteration  4 RMS(Cart)=  0.00000000 RMS(Int)=  0.00121983
 Variable       Old X    -DE/DX   Delta X   Delta X   Delta X     New X
                                 (Linear)    (Quad)   (Total)
    R1        2.55978   0.01629  -0.00153   0.03548   0.03400   2.59378
    R2        3.26124  -0.01739  -0.01339  -0.06046  -0.07401   3.18723
    R3        2.04376   0.00469   0.00339   0.01205   0.01544   2.05921
    R4        2.73463  -0.00219  -0.03095   0.01587  -0.01488   2.71975
    R5        2.04713   0.00687   0.00392   0.01827   0.02218   2.06931
    R6        2.55917   0.02118  -0.00162   0.04664   0.04511   2.60429
    R7        2.79440  -0.00004  -0.01806   0.01255  -0.00551   2.78888
    R8        3.25951  -0.01725  -0.01366  -0.05876  -0.07255   3.18696
    R9        2.04357   0.00462   0.00336   0.01185   0.01521   2.05878
   R10        2.08759   0.00956   0.01023   0.02257   0.03280   2.12038
   R11        2.08659   0.00928   0.01007   0.02182   0.03189   2.11848
   R12        2.08657   0.00938   0.01007   0.02211   0.03218   2.11875
    A1        1.95064  -0.00130   0.00324  -0.00700  -0.00658   1.94406
    A2        2.19184   0.00353   0.00238   0.01862   0.02208   2.21392
    A3        2.14022  -0.00226  -0.00570  -0.01246  -0.01692   2.12330
    A4        1.95597  -0.00123  -0.00016   0.00184  -0.00098   1.95499
    A5        2.19245   0.00130   0.00457  -0.00095   0.00438   2.19683
    A6        2.13476  -0.00007  -0.00440  -0.00094  -0.00450   2.13026
    A7        1.96351  -0.00535   0.00101  -0.01601  -0.01742   1.94609
    A8        2.13786   0.00082  -0.00391   0.00246  -0.00043   2.13743
    A9        2.18181   0.00454   0.00291   0.01371   0.01761   2.19941
   A10        1.94688  -0.00088   0.00266  -0.00153  -0.00165   1.94523
   A11        2.19352   0.00312   0.00264   0.01455   0.01821   2.21174
   A12        2.14232  -0.00228  -0.00537  -0.01388  -0.01805   2.12427
   A13        1.59916   0.00937  -0.00463   0.04357   0.03446   1.63362
   A14        1.90430   0.00256  -0.00099   0.01748   0.01628   1.92057
   A15        1.90525   0.00324  -0.00084   0.02311   0.02199   1.92724
   A16        1.90418   0.00401  -0.00101   0.02907   0.02774   1.93192
   A17        1.91559  -0.00314   0.00077  -0.02371  -0.02310   1.89249
   A18        1.91652  -0.00331   0.00092  -0.02384  -0.02316   1.89336
   A19        1.91785  -0.00323   0.00113  -0.02122  -0.02047   1.89737
    D1        0.08143  -0.00336  -0.00796  -0.10418  -0.11066  -0.02923
    D2       -3.05879  -0.00248  -0.00583  -0.05710  -0.06224  -3.12103
    D3       -3.02711  -0.00209  -0.00346  -0.07544  -0.07762  -3.10473
    D4        0.11586  -0.00121  -0.00132  -0.02836  -0.02920   0.08666
    D5       -0.11033   0.00371   0.01071   0.13429   0.14561   0.03528
    D6        2.99934   0.00261   0.00639   0.10722   0.11541   3.11475
    D7        0.00277   0.00011   0.00048   0.00255   0.00296   0.00574
    D8        3.13833   0.00051   0.00131   0.03161   0.03192  -3.11293
    D9       -3.14014  -0.00073  -0.00164  -0.04274  -0.04332   3.09972
   D10       -0.00458  -0.00033  -0.00082  -0.01368  -0.01437  -0.01895
   D11       -0.08560   0.00316   0.00724   0.10001   0.10595   0.02036
   D12        3.02374   0.00195   0.00286   0.06997   0.07151   3.09525
   D13        3.06221   0.00276   0.00644   0.07013   0.07583   3.13803
   D14       -0.11164   0.00156   0.00206   0.04009   0.04138  -0.07026
   D15       -1.56648  -0.00005  -0.00031  -0.00899  -0.00907  -1.57555
   D16        0.52685  -0.00039  -0.00048  -0.01348  -0.01384   0.51302
   D17        2.62287   0.00004  -0.00023  -0.00790  -0.00787   2.61500
   D18        1.56830   0.00036   0.00060   0.02368   0.02411   1.59241
   D19       -2.62154   0.00002   0.00043   0.01919   0.01934  -2.60220
   D20       -0.52553   0.00045   0.00069   0.02477   0.02531  -0.50022
   D21        0.11159  -0.00359  -0.01049  -0.13185  -0.14355  -0.03196
   D22       -2.99885  -0.00254  -0.00628  -0.10344  -0.11186  -3.11072
         Item               Value     Threshold  Converged?
 Maximum Force            0.021182     0.000450     NO 
 RMS     Force            0.006148     0.000300     NO 
 Maximum Displacement     0.249435     0.001800     NO 
 RMS     Displacement     0.054378     0.001200     NO 
 Predicted change in Energy=-5.803362D-03
 GradGradGradGradGradGradGradGradGradGradGradGradGradGradGradGradGradGrad

                          Input orientation:                          
 ---------------------------------------------------------------------
 Center     Atomic      Atomic             Coordinates (Angstroms)
 Number     Number       Type             X           Y           Z
 ---------------------------------------------------------------------
      1          6           0       -0.968468    1.359640   -0.033558
      2          6           0        0.403509    1.377830   -0.069593
      3          6           0        0.927721    2.715411    0.016791
      4          6           0       -0.081700    3.647758    0.121865
      5         16           0       -1.599628    2.913288    0.146631
      6          1           0       -1.611000    0.479700   -0.050031
      7          1           0        1.053611    0.505955   -0.197249
      8          1           0        0.035658    4.724206    0.241917
      9          6           0        2.373960    3.004482   -0.036680
     10          1           0        2.806566    2.994725    0.998584
     11          1           0        2.905084    2.230909   -0.650073
     12          1           0        2.559888    4.012911   -0.490089
 ---------------------------------------------------------------------
                    Distance matrix (angstroms):
                    1          2          3          4          5
     1  C    0.000000
     2  C    1.372571   0.000000
     3  C    2.331562   1.439230   0.000000
     4  C    2.458861   2.329089   1.378130   0.000000
     5  S    1.686610   2.533168   2.538406   1.686465   0.000000
     6  H    1.089685   2.205734   3.383485   3.522058   2.441548
     7  H    2.200994   1.095032   2.223366   3.355844   3.599053
     8  H    3.521996   3.380914   2.209460   1.089461   2.441856
     9  C    3.725230   2.555339   1.475814   2.543464   3.978859
    10  H    4.241427   3.087076   2.138222   3.088231   4.488541
    11  H    4.017910   2.706026   2.142291   3.394735   4.625236
    12  H    4.438194   3.430807   2.145787   2.736021   4.349270
                    6          7          8          9         10
     6  H    0.000000
     7  H    2.668803   0.000000
     8  H    4.562077   4.361506   0.000000
     9  C    4.717478   2.830502   2.915943   0.000000
    10  H    5.190359   3.270603   3.352847   1.122058   0.000000
    11  H    4.880757   2.570694   3.904584   1.121052   1.819668
    12  H    5.483934   3.827972   2.722776   1.121196   1.820358
                   11         12
    11  H    0.000000
    12  H    1.822165   0.000000
 Stoichiometry    C5H6S
 Framework group  C1[X(C5H6S)]
 Deg. of freedom    30
 Full point group                 C1      NOp   1
 Largest Abelian subgroup         C1      NOp   1
 Largest concise Abelian subgroup C1      NOp   1
                         Standard orientation:                         
 ---------------------------------------------------------------------
 Center     Atomic      Atomic             Coordinates (Angstroms)
 Number     Number       Type             X           Y           Z
 ---------------------------------------------------------------------
      1          6           0        1.041943    1.130759   -0.015042
      2          6           0       -0.325720    1.243716    0.011184
      3          6           0       -0.973314   -0.041584    0.008060
      4          6           0       -0.055649   -1.069533   -0.013233
      5         16           0        1.526101   -0.484762    0.003292
      6          1           0        1.765564    1.944994    0.013373
      7          1           0       -0.892732    2.180233   -0.011794
      8          1           0       -0.272029   -2.136759    0.020426
      9          6           0       -2.441730   -0.188788   -0.002593
     10          1           0       -2.831602   -0.230772    1.048717
     11          1           0       -2.918434    0.682307   -0.522887
     12          1           0       -2.741569   -1.131238   -0.530764
 ---------------------------------------------------------------------
 Rotational constants (GHZ):           7.0030746           2.5126383           1.8721354
 Standard basis: VSTO-6G (5D, 7F)
 There are    30 symmetry adapted cartesian basis functions of A   symmetry.
 There are    30 symmetry adapted basis functions of A   symmetry.
    30 basis functions,   180 primitive gaussians,    30 cartesian basis functions
    16 alpha electrons       16 beta electrons
       nuclear repulsion energy       128.2447140802 Hartrees.



 Warning!  S  atom    5 may be hypervalent but has no d functions.



 Integral buffers will be    131072 words long.
 Regular integral format.
 Two-electron integral symmetry is turned off.
 Do NDO integrals.
 One-electron integrals computed using PRISM.
 NBasis=    30 RedAO= F EigKep=  0.00D+00  NBF=    30
 NBsUse=    30 1.00D-04 EigRej=  0.00D+00 NBFU=    30
 Initial guess from the checkpoint file:  "meth_thiophene_opt.chk"
 B after Tr=     0.000000    0.000000   -0.000000
         Rot=    0.999999   -0.001379   -0.000533    0.000319 Ang=  -0.17 deg.
 Keep J ints in memory in canonical form, NReq=861564.
 Overlap will be assumed to be unity.
 Requested convergence on RMS density matrix=1.00D-08 within 128 cycles.
 Requested convergence on MAX density matrix=1.00D-06.
 Requested convergence on             energy=1.00D-06.
 No special actions if energy rises.
 SCF Done:  E(RAM1) =  0.313973126891E-01 A.U. after   13 cycles
            NFock= 12  Conv=0.35D-08     -V/T= 1.0006
 Calling FoFJK, ICntrl=      2127 FMM=F ISym2X=0 I1Cent= 0 IOpClX= 0 NMat=1 NMatS=1 NMatT=0.
 ***** Axes restored to original set *****
 -------------------------------------------------------------------
 Center     Atomic                   Forces (Hartrees/Bohr)
 Number     Number              X              Y              Z
 -------------------------------------------------------------------
      1        6          -0.002723418    0.004816127    0.006837823
      2        6           0.001149383   -0.000744444   -0.004872050
      3        6           0.004262090    0.001615536   -0.003146377
      4        6          -0.005520408   -0.003745759    0.005938462
      5       16           0.007289252   -0.001853207   -0.003373208
      6        1           0.001682642    0.000513362   -0.001962644
      7        1          -0.001784254    0.001096173    0.001691995
      8        1           0.001109408   -0.001306208   -0.002326109
      9        6          -0.004077959   -0.000000033    0.000607833
     10        1          -0.000490510    0.000088821   -0.001911600
     11        1          -0.000736342    0.001701434    0.001299274
     12        1          -0.000159885   -0.002181801    0.001216603
 -------------------------------------------------------------------
 Cartesian Forces:  Max     0.007289252 RMS     0.003055995

 GradGradGradGradGradGradGradGradGradGradGradGradGradGradGradGradGradGrad
 Berny optimization.
 Using GEDIIS/GDIIS optimizer.
 FormGI is forming the generalized inverse of G from B-inverse, IUseBI=4.
 Internal  Forces:  Max     0.005840918 RMS     0.001727637
 Search for a local minimum.
 Step number   3 out of a maximum of   63
 All quantities printed in internal units (Hartrees-Bohrs-Radians)
 Mixed Optimization -- RFO/linear search
 Update second derivatives using D2CorX and points    2    3
 DE= -4.75D-03 DEPred=-5.80D-03 R= 8.19D-01
 TightC=F SS=  1.41D+00  RLast= 3.80D-01 DXNew= 8.4853D-01 1.1388D+00
 Trust test= 8.19D-01 RLast= 3.80D-01 DXMaxT set to 8.49D-01
 ITU=  1  1  0
 Use linear search instead of GDIIS.
     Eigenvalues ---    0.00237   0.00850   0.01117   0.01536   0.01984
     Eigenvalues ---    0.02084   0.02477   0.07012   0.07100   0.14983
     Eigenvalues ---    0.15964   0.15987   0.16000   0.16001   0.16363
     Eigenvalues ---    0.20316   0.22673   0.23534   0.25097   0.27972
     Eigenvalues ---    0.28410   0.35539   0.37224   0.37230   0.37230
     Eigenvalues ---    0.37230   0.37611   0.38799   0.48864   0.61010
 RFO step:  Lambda=-1.56199878D-03 EMin= 2.36817723D-03
 Quartic linear search produced a step of -0.01887.
 Iteration  1 RMS(Cart)=  0.02276113 RMS(Int)=  0.00079715
 Iteration  2 RMS(Cart)=  0.00066145 RMS(Int)=  0.00052485
 Iteration  3 RMS(Cart)=  0.00000019 RMS(Int)=  0.00052485
 Variable       Old X    -DE/DX   Delta X   Delta X   Delta X     New X
                                 (Linear)    (Quad)   (Total)
    R1        2.59378  -0.00098  -0.00064   0.00705   0.00643   2.60021
    R2        3.18723  -0.00510   0.00140  -0.03653  -0.03523   3.15200
    R3        2.05921  -0.00138  -0.00029   0.00043   0.00013   2.05934
    R4        2.71975  -0.00127   0.00028  -0.00880  -0.00841   2.71134
[...]
 ! A6    A(3,2,7)              122.7691         -DE/DX =    0.0                 !
 ! A7    A(2,3,4)              111.1241         -DE/DX =    0.0                 !
 ! A8    A(2,3,9)              122.9908         -DE/DX =    0.0                 !
 ! A9    A(4,3,9)              125.8851         -DE/DX =    0.0                 !
 ! A10   A(3,4,5)              111.7662         -DE/DX =    0.0                 !
 ! A11   A(3,4,8)              125.3838         -DE/DX =    0.0                 !
 ! A12   A(5,4,8)              122.8501         -DE/DX =    0.0                 !
 ! A13   A(1,5,4)               93.8584         -DE/DX =    0.0                 !
 ! A14   A(3,9,10)             110.3099         -DE/DX =    0.0                 !
 ! A15   A(3,9,11)             110.3114         -DE/DX =    0.0                 !
 ! A16   A(3,9,12)             111.0874         -DE/DX =    0.0                 !
 ! A17   A(10,9,11)            108.1287         -DE/DX =    0.0                 !
 ! A18   A(10,9,12)            108.4597         -DE/DX =    0.0                 !
 ! A19   A(11,9,12)            108.4604         -DE/DX =    0.0                 !
 ! D1    D(5,1,2,3)             -0.0004         -DE/DX =    0.0                 !
 ! D2    D(5,1,2,7)            180.0015         -DE/DX =    0.0                 !
 ! D3    D(6,1,2,3)            180.001          -DE/DX =    0.0                 !
 ! D4    D(6,1,2,7)              0.0029         -DE/DX =    0.0                 !
 ! D5    D(2,1,5,4)              0.0001         -DE/DX =    0.0                 !
 ! D6    D(6,1,5,4)            179.9988         -DE/DX =    0.0                 !
 ! D7    D(1,2,3,4)              0.0005         -DE/DX =    0.0                 !
 ! D8    D(1,2,3,9)            179.9964         -DE/DX =    0.0                 !
 ! D9    D(7,2,3,4)            179.9986         -DE/DX =    0.0                 !
 ! D10   D(7,2,3,9)             -0.0054         -DE/DX =    0.0                 !
 ! D11   D(2,3,4,5)             -0.0004         -DE/DX =    0.0                 !
 ! D12   D(2,3,4,8)            180.0002         -DE/DX =    0.0                 !
 ! D13   D(9,3,4,5)           -179.9961         -DE/DX =    0.0                 !
 ! D14   D(9,3,4,8)              0.0044         -DE/DX =    0.0                 !
 ! D15   D(2,3,9,10)           -59.6969         -DE/DX =    0.0                 !
 ! D16   D(2,3,9,11)            59.6942         -DE/DX =    0.0                 !
 ! D17   D(2,3,9,12)           179.9996         -DE/DX =    0.0                 !
 ! D18   D(4,3,9,10)           120.2984         -DE/DX =    0.0                 !
 ! D19   D(4,3,9,11)          -120.3105         -DE/DX =    0.0                 !
 ! D20   D(4,3,9,12)            -0.0051         -DE/DX =    0.0                 !
 ! D21   D(3,4,5,1)              0.0001         -DE/DX =    0.0                 !
 ! D22   D(8,4,5,1)            179.9996         -DE/DX =    0.0                 !
 --------------------------------------------------------------------------------
 GradGradGradGradGradGradGradGradGradGradGradGradGradGradGradGradGradGrad


 ----------------------------------------------------------------------

 Electric dipole moment (input orientation):
 (Debye = 10**-18 statcoulomb cm , SI units = C m)
                  (au)            (Debye)         (10**-30 SI)
   Tot        0.504511D-01      0.128234D+00      0.427742D+00
   x         -0.312806D-01     -0.795074D-01     -0.265208D+00
   y          0.395801D-01      0.100603D+00      0.335574D+00
   z          0.502429D-03      0.127705D-02      0.425977D-02

 Dipole polarizability, Alpha (input orientation).
 (esu units = cm**3 , SI units = C**2 m**2 J**-1)
 Alpha(0;0):
               (au)            (10**-24 esu)      (10**-40 SI)
   iso        0.548533D+02      0.812842D+01      0.904409D+01
   aniso      0.578068D+02      0.856608D+01      0.953105D+01
   xx         0.820085D+02      0.121524D+02      0.135214D+02
   yx        -0.463527D+01     -0.686876D+00     -0.764252D+00
   yy         0.644723D+02      0.955380D+01      0.106300D+02
   zx        -0.111988D+01     -0.165950D+00     -0.184644D+00
   zy        -0.322954D-02     -0.478569D-03     -0.532480D-03
   zz         0.180791D+02      0.267905D+01      0.298084D+01

 First dipole hyperpolarizability, Beta (input orientation).
 ||, _|_  parallel and perpendicular components, (z) with respect to z axis,
 vector components x,y,z.  Values do not include the 1/n! factor of 1/2.
 (esu units = statvolt**-1 cm**4 , SI units = C**3 m**3 J**-2)
 Beta(0;0,0):
               (au)            (10**-30 esu)      (10**-50 SI)
   || (z)    -0.609956D+00     -0.526955D-02     -0.195574D-02
   _|_(z)    -0.203319D+00     -0.175652D-02     -0.651913D-03
   x          0.181931D+03      0.157174D+01      0.583337D+00
   y         -0.941725D+02     -0.813577D+00     -0.301951D+00
   z         -0.304978D+01     -0.263477D-01     -0.977870D-02
   ||         0.409764D+02      0.354004D+00      0.131385D+00
   xxx       -0.317576D+01     -0.274361D-01     -0.101826D-01
   xxy        0.396269D+02      0.342346D+00      0.127058D+00
   yxy        0.315817D+02      0.272841D+00      0.101262D+00
   yyy       -0.539141D+02     -0.465776D+00     -0.172868D+00
   xxz        0.111418D+01      0.962565D-02      0.357247D-02
   yxz       -0.999528D+00     -0.863514D-02     -0.320485D-02
   yyz       -0.522309D+00     -0.451234D-02     -0.167471D-02
   zxz        0.322377D+02      0.278509D+00      0.103366D+00
   zyz       -0.171036D+02     -0.147762D+00     -0.548403D-01
   zzz       -0.160847D+01     -0.138959D-01     -0.515732D-02

 ----------------------------------------------------------------------

 Dipole orientation:
     6          0.14685965          0.07918721          3.16091541
     6          1.73507716          1.37255940          1.56064824
     6          3.55149785          2.85365730          2.93280920
     6          3.22665653          2.59042033          5.50765893
    16          0.83786527          0.64408387          6.19319187
     1         -1.38282172         -1.16780264          2.58218937
     1          1.66807671          1.31681401         -0.50009060
     1          4.36126784          3.51592166          6.95191525
     6          5.47508532          4.42035763          1.68713131
     1          6.71775769          3.22303798          0.46414591
     1          4.55414661          5.87813575          0.46232273
     1          6.68657712          5.40855038          3.10726963

 Electric dipole moment (dipole orientation):
 (Debye = 10**-18 statcoulomb cm , SI units = C m)
                  (au)            (Debye)         (10**-30 SI)
   Tot        0.504511D-01      0.128234D+00      0.427742D+00
   x          0.000000D+00      0.000000D+00      0.000000D+00
   y          0.000000D+00      0.000000D+00      0.000000D+00
   z          0.504511D-01      0.128234D+00      0.427742D+00

 Dipole polarizability, Alpha (dipole orientation).
 (esu units = cm**3 , SI units = C**2 m**2 J**-1)
 Alpha(0;0):
               (au)            (10**-24 esu)      (10**-40 SI)
   iso        0.548533D+02      0.812842D+01      0.904409D+01
   aniso      0.578068D+02      0.856608D+01      0.953105D+01
   xx         0.497374D+02      0.737032D+01      0.820059D+01
   yx         0.258112D+02      0.382483D+01      0.425570D+01
   yy         0.390903D+02      0.579259D+01      0.644512D+01
   zx        -0.746686D+01     -0.110647D+01     -0.123112D+01
   zy        -0.605112D+01     -0.896684D+00     -0.997695D+00
   zz         0.757321D+02      0.112223D+02      0.124865D+02

 First dipole hyperpolarizability, Beta (dipole orientation).
 ||, _|_  parallel and perpendicular components, (z) with respect to z axis,
 vector components x,y,z.  Values do not include the 1/n! factor of 1/2.
 (esu units = statvolt**-1 cm**4 , SI units = C**3 m**3 J**-2)
 Beta(0;0,0):
               (au)            (10**-30 esu)      (10**-50 SI)
   || (z)    -0.373423D+02     -0.322608D+00     -0.119733D+00
   _|_(z)    -0.124474D+02     -0.107536D+00     -0.399110D-01
   x          0.654357D+02      0.565313D+00      0.209810D+00
   y          0.532319D+02      0.459882D+00      0.170681D+00
   z         -0.186712D+03     -0.161304D+01     -0.598665D+00
   ||         0.409764D+02      0.354004D+00      0.131385D+00
   xxx        0.414028D+02      0.357688D+00      0.132753D+00
   xxy        0.151453D+02      0.130844D+00      0.485613D-01
   yxy        0.162037D+02      0.139988D+00      0.519551D-01
   yyy        0.317393D+02      0.274203D+00      0.101768D+00
   xxz       -0.152621D+02     -0.131853D+00     -0.489358D-01
   yxz        0.147844D+02      0.127726D+00      0.474042D-01
   yyz       -0.214191D+02     -0.185045D+00     -0.686775D-01
   zxz       -0.357947D+02     -0.309238D+00     -0.114771D+00
   zyz       -0.291407D+02     -0.251753D+00     -0.934356D-01
   zzz       -0.255559D+02     -0.220783D+00     -0.819416D-01

 ----------------------------------------------------------------------
 1\1\GINC-IISERK51\Freq\RAM1\ZDO\C5H6S1\GAUSSIAN\14-Jun-2025\0\\#N Geom
 =AllCheck Guess=TCheck SCRF=Check GenChk RAM1/ZDO Freq\\methyl_thiophe
 ne opt freq with AM1\\0,1\C,-0.9687789144,1.3660578789,0.0319676248\C,
 0.4064487583,1.3738119416,0.0076813386\C,0.9290634402,2.7125384988,-0.
 0040018657\C,-0.0893016918,3.6442940621,0.01227055\S,-1.5932148648,2.9
 177862967,0.0401479889\H,-1.5980731827,0.4781953607,0.0447207246\H,1.0
 464089984,0.4896933582,-0.0020185978\H,0.04459032,4.72434535,0.0079231
 236\C,2.3675313207,3.0094694852,-0.0298575679\H,2.870931292,2.57098052
 64,0.8684876405\H,2.8390828523,2.5675840511,-0.9436717411\H,2.55051221
 17,4.1120599904,-0.0351341284\\Version=EM64L-G16RevB.01\State=1-A\HF=0
 .0306656\RMSD=5.380e-10\RMSF=4.277e-06\ZeroPoint=0.0958945\Thermal=0.1
 017235\Dipole=-0.0312806,0.0395801,0.0005024\DipoleDeriv=0.3557076,-0.
 4937211,-0.0118738,-0.7474923,0.0908897,0.0123459,-0.0114113,0.0078694
 ,-0.3681646,-0.6207239,0.2860222,0.0082099,-0.2809614,0.0367167,0.0046
 63,0.0092427,-0.0053374,-0.1254975,-0.0851722,0.0399653,0.0009037,0.60
 92185,-0.2519213,-0.0103458,-0.0001163,-0.0003063,-0.0307403,0.8261754
 ,-0.2210588,-0.0210036,0.086759,-0.3901816,-0.0015247,-0.0215689,0.003
 9088,-0.3859839,-0.8253,0.2856345,0.0193226,0.2616249,-0.1831586,-0.00
 37312,0.019368,-0.0041571,0.2986971,0.1179067,0.1094125,0.0009861,0.13
 24786,0.196646,-0.0023598,0.0009466,-0.0019535,0.1851249,0.1225254,-0.
 0602341,0.0005527,-0.0872767,0.1682882,0.0015038,0.0006036,0.0010251,0
 .147583,0.0281613,0.028688,0.0027254,-0.0017249,0.2733699,-0.0001316,0
 .002779,-0.0006678,0.1854669,0.036512,0.0266075,-0.0013307,0.0563704,-
 0.0500902,-0.0009688,-0.0014068,-0.0004411,-0.0362841,0.0094496,-0.002
 2926,-0.0049207,-0.0184531,0.0397565,0.0084343,0.0166149,-0.0000695,0.
 0425411,0.0090936,-0.0022715,0.006106,-0.0187954,0.0397263,-0.0077659,
 -0.0153647,0.0001612,0.0429435,0.0256634,0.0032511,0.0003224,0.0082397
 ,0.0299536,-0.0001189,0.0003135,-0.0000316,0.0443093\Polar=82.0084962,
 -4.6352659,64.4722602,-1.1198839,-0.0032295,18.0791093\HyperPolar=-3.1
 757583,39.6269059,31.58168,-53.9141428,1.1141804,-0.9995279,-0.5223086
 ,32.237748,-17.1035896,-1.6084654\PG=C01 [X(C5H6S1)]\NImag=0\\0.781915
 58,0.18687530,0.52690457,-0.01201117,-0.00404606,0.12126629,-0.4884800
 1,-0.03986640,0.00749106,0.82585552,0.04543735,-0.08284764,-0.00077485
 ,-0.09356333,0.75002666,0.00733463,0.00073063,-0.06838084,-0.01186806,
 0.00054607,0.14414894,-0.05733723,-0.05369356,0.00126603,-0.11264384,-
 0.12264853,0.00092457,0.95691650,-0.10829843,0.00225893,0.00192301,-0.
 03609902,-0.29831258,0.00105063,-0.00848243,0.70373567,0.00136596,0.00
 095939,0.00877040,0.00076612,0.00257811,-0.07301791,-0.01379992,-0.000
 81868,0.17342948,-0.04074851,0.00676741,0.00081024,0.05071734,0.063007
 61,-0.00084051,-0.29678321,0.15452324,0.00372078,0.49102962,-0.0260572
 3,-0.06136508,0.00058330,0.00916235,-0.10464598,0.00004762,0.23555333,
 -0.25763918,-0.00381380,-0.13739675,0.81985879,0.00087083,0.00000370,0
 .00585805,-0.00074219,-0.00090297,0.00965292,0.00357273,-0.00238351,-0
 .06998892,-0.00627734,0.00114324,0.12116416,-0.03247218,0.01941215,-0.
 00017457,-0.07903724,0.01535423,0.00156989,-0.09062069,0.04727782,0.00
 169257,-0.11665816,-0.04769903,0.00143930,0.32971572,0.04182436,-0.146
 76349,-0.00054325,0.06421258,-0.02262326,-0.00107090,-0.00032060,-0.00
 902655,0.00004111,-0.07155225,-0.06466212,0.00130808,-0.02064833,0.283
 16451,-0.00021560,-0.00014773,-0.04034839,0.00148025,-0.00020849,0.011
 46854,0.00178006,-0.00079910,0.01014723,0.00148288,0.00088692,-0.04011
 178,-0.00504954,-0.00007852,0.04160919,-0.12976219,-0.14103068,0.00188
 306,-0.02922140,-0.02764497,0.00066266,-0.00383317,0.00124288,0.000169
 22,0.00065932,0.00309195,0.00001350,0.00340858,0.00792801,-0.00000919,
 0.15845976,-0.14433704,-0.23507393,0.00291295,-0.00713291,0.00135958,0
 .00013349,0.00086888,0.00044005,-0.00000526,0.00177094,-0.00300849,-0.
 00002252,-0.00719596,-0.02746424,0.00018436,0.15696317,0.26343608,0.00
 188956,0.00285487,-0.03791281,0.00062448,0.00049551,0.00541659,0.00016
 997,-0.00001193,0.00588177,0.00001590,-0.00004593,0.00174336,0.0000186
 2,-0.00008279,0.00371075,-0.00268922,-0.00321625,0.02262896,-0.0306722
 6,0.02552482,0.00060945,-0.13609862,0.13813013,0.00144851,0.00769929,-
 0.00739862,-0.00002989,-0.00074757,-0.00207489,0.00006517,-0.00249484,
 0.00045282,0.00012824,0.00010239,-0.00020527,-0.00003005,0.16178205,0.
 00701974,-0.00019003,-0.00011188,0.13762649,-0.22808047,-0.00208917,0.
 01192333,-0.03332574,-0.00014026,-0.00070360,-0.00257466,0.00002213,-0
 .00182914,0.00120261,0.00003883,0.00008785,0.00045594,-0.00000532,-0.1
 5450731,0.26264470,0.00064279,-0.00043848,0.00646992,0.00144990,-0.002
 09881,-0.03991551,-0.00006510,0.00020145,0.00523741,0.00006262,0.00004
 635,0.00272504,0.00013233,-0.00000132,0.00481359,-0.00003058,-0.000000
 21,-0.00161952,-0.00217067,0.00229348,0.02302618,-0.00333723,-0.002743
 05,0.00009365,-0.00294202,0.00179376,0.00014527,0.00194290,0.02740355,
 0.00002163,-0.03559404,-0.04094450,0.00003737,-0.01086093,-0.02293960,
 0.00030082,0.00037738,-0.00063498,0.00000170,0.00027737,0.00038000,-0.
 00000957,0.05011249,-0.00126553,0.00098103,0.00002364,0.00193114,-0.00
 060683,-0.00002297,0.00729691,-0.02972583,-0.00006316,-0.03772499,-0.3
 2926425,0.00120125,-0.00793596,-0.01315541,0.00017119,-0.00000318,-0.0
 0031013,0.00000137,-0.00008452,-0.00030993,0.00000164,0.03776419,0.372
 12125,0.00009083,0.00004968,0.00168128,0.00014498,-0.00002046,0.005470
 29,0.00005878,-0.00041861,0.00601054,0.00003131,0.00125863,-0.03773763
 ,0.00027324,0.00043589,0.00379299,0.00000056,0.00001252,0.00040808,-0.
 00000872,-0.00000654,-0.00022522,-0.00055939,-0.00130880,0.02236533,0.
 00110309,-0.00086563,0.00002864,-0.02461301,-0.01973551,0.00054404,-0.
 32716267,-0.05457577,0.00465424,-0.04855749,0.00853597,0.00097154,-0.0
 0017405,0.00133554,0.00008924,-0.00008083,-0.00011384,-0.00000238,0.00
 021913,-0.00006122,-0.00001239,0.00045979,-0.00001278,-0.00004204,0.60
 954156,-0.00147295,-0.00375747,0.00003778,-0.03459825,-0.01383925,0.00
 064259,-0.05783302,-0.07778990,0.00103482,0.02227847,0.00285632,-0.000
 38421,0.00335798,-0.00072323,-0.00004883,-0.00062588,0.00016326,0.0000
 1037,0.00009783,0.00008528,-0.00000274,0.00011015,0.00039035,-0.000006
 19,0.02243115,0.53123473,0.00002988,0.00002713,0.00264221,0.00057155,0
 .00038092,0.00421980,0.00466045,0.00097774,-0.06845760,0.00094715,-0.0
 0014220,0.00745285,0.00008579,-0.00001312,0.00503021,-0.00000146,0.000
 00127,-0.00022905,-0.00001273,0.00000004,-0.00049018,-0.00004238,-0.00
 000409,-0.00192766,-0.00210142,-0.00045694,0.49327762,0.00004789,0.000
 20294,0.00023784,-0.00001868,-0.00005316,-0.00001463,-0.03140406,0.009
 60994,-0.02613251,-0.00117006,-0.00093956,0.00015654,-0.00059789,-0.00
 008717,0.00084882,0.00002114,-0.00001821,-0.00003861,-0.00002651,-0.00
 000681,-0.00006619,-0.00000075,-0.00010958,-0.00028501,-0.08538402,0.0
 4181487,-0.08683590,0.10825094,0.00017357,-0.00005132,-0.00002219,-0.0
 0063179,-0.00037028,0.00008707,0.00082852,0.00610911,-0.00231144,-0.00
 032835,0.00006291,0.00001852,-0.00024444,-0.00001785,0.00016324,0.0000
 0180,-0.00000414,-0.00001128,0.00000231,0.00002495,0.00004497,-0.00002
 048,-0.00006452,0.00005205,0.04195709,-0.07890838,0.07732582,-0.050405
 44,0.08696637,-0.00008736,0.00010681,-0.00002540,0.00021779,0.00009063
 ,0.00016700,-0.01127349,0.00092842,-0.00037532,0.00034794,-0.00021672,
 -0.00032589,0.00018312,-0.00006266,-0.00007847,0.00000885,-0.00002388,
 0.00000344,-0.00003244,-0.00003113,0.00000525,0.00003535,0.00003300,0.
 00005202,-0.08680724,0.07720772,-0.19722008,0.10718209,-0.09347895,0.2
 3223126,0.00004251,0.00019813,-0.00024094,-0.00002542,-0.00005619,0.00
 002155,-0.03005188,0.00967105,0.02714037,-0.00118737,-0.00093187,-0.00
 012276,-0.00063358,-0.00008788,-0.00082882,0.00002217,-0.00001721,0.00
 003801,-0.00002300,-0.00000551,0.00006719,0.00000817,-0.00010960,0.000
 28693,-0.07943208,0.03938946,0.08255940,0.00635503,-0.00220974,-0.0071
 4730,0.10088462,0.00017451,-0.00005163,0.00001617,-0.00063508,-0.00037
 080,-0.00006274,0.00095297,0.00611339,0.00225346,-0.00033027,0.0000637
 9,-0.00000840,-0.00025065,-0.00001819,-0.00015464,0.00000217,-0.000004
 01,0.00001123,0.00000085,0.00002489,-0.00004512,-0.00002243,-0.0000648
 3,-0.00005088,0.03952774,-0.07949673,-0.07921759,-0.00194270,0.0066571
 4,0.00687062,-0.04747690,0.08767773,0.00008428,-0.00011374,-0.00001968
 ,-0.00020855,-0.00008658,0.00017445,0.01231283,-0.00129422,-0.00173110
 ,-0.00031639,0.00024813,-0.00031002,-0.00016269,0.00006556,-0.00004249
 ,-0.00000952,0.00002453,0.00000228,0.00003344,0.00003128,0.00000181,-0
 .00003370,-0.00002871,0.00004348,0.08253147,-0.07909458,-0.20259818,0.
 00579861,-0.00694342,-0.03222255,-0.10240030,0.09576216,0.23890021,-0.
 00029918,-0.00078179,0.00000669,-0.00349256,-0.00002123,0.00007207,-0.
 01672216,-0.03487412,0.00043144,-0.00095969,-0.00029979,0.00001531,0.0
 0042528,-0.00011715,-0.00000716,-0.00015330,0.00005252,0.00000202,-0.0
 0001754,0.00007610,-0.00000033,-0.00044321,0.00025390,0.00000851,-0.04
 591941,-0.03494987,0.00013968,0.00392694,0.01087691,-0.00262733,0.0040
 4081,0.00999976,0.00237055,0.05961404,-0.00007405,-0.00004367,0.000001
 37,-0.00040509,0.00031110,0.00000768,-0.01444599,-0.01283762,0.0002857
 1,-0.00031163,0.00031779,0.00000468,0.00040146,0.00008715,-0.00000724,
 -0.00001310,0.00000998,0.00000015,0.00006192,0.00004243,-0.00000122,-0
 .00014657,0.00000907,0.00000270,-0.03842299,-0.28021480,0.00112103,0.0
 0193494,-0.02040402,0.00857614,0.00163631,-0.02053078,-0.00857043,0.04
 978472,0.33325333,0.00000537,0.00001382,-0.00000107,0.00007267,0.00000
 091,0.00059551,0.00039312,0.00064479,0.00409498,0.00001540,0.00000446,
 -0.00012245,-0.00000805,0.00000191,0.00000911,0.00000212,-0.00000100,-
 0.00003414,-0.00000031,-0.00000147,-0.00002894,0.00000926,-0.00000437,
 0.00006618,0.00014629,0.00106021,-0.04169997,-0.00085083,0.02507564,-0
 .00221125,0.00062645,-0.02537431,-0.00219817,-0.00041146,-0.00142059,0
 .04153006\\0.00000697,-0.00000056,-0.00000188,-0.00000304,0.00001197,0
 .00000369,-0.00001090,-0.00001177,-0.00000465,0.00000176,-0.00000141,0
 .00000167,-0.00000098,-0.00000022,0.00000044,-0.00000052,0.00000121,0.
 00000084,0.00000058,-0.00000029,-0.00000123,-0.00000035,-0.00000112,-0
 .00000038,0.00000338,0.00000800,-0.00000467,0.00000262,-0.00000253,0.0
 0000492,0.00000042,-0.00000009,0.00000071,0.00000007,-0.00000318,0.000
 00054\\\@


 A COMPUTER IS LIKE A HORSE, IT WILL SENSE WEAKNESS.
     -- GREG WETTSTEIN
 Job cpu time:       0 days  0 hours  0 minutes  0.5 seconds.
 Elapsed time:       0 days  0 hours  0 minutes  0.5 seconds.
 File lengths (MBytes):  RWF=      8 Int=      0 D2E=      0 Chk=      2 Scr=      1
 Normal termination of Gaussian 16 at Sat Jun 14 14:44:08 2025.
