 Entering Gaussian System, Link 0=g16
 Input=/home/gaussian/Documents/Summer_Internship/Aromaticity/hetrocyclic/thiphene/meth_thiophene_isomer_sp.com
 Output=/home/gaussian/Documents/Summer_Internship/Aromaticity/hetrocyclic/thiphene/meth_thiophene_isomer_sp.log
 Initial command:
 /usr/local/g16/l1.exe "/home/gaussian/tmp/Gau-47180.inp" -scrdir="/home/gaussian/tmp/"
 Entering Link 1 = /usr/local/g16/l1.exe PID=     47183.
  
 Copyright (c) 1988-2017, Gaussian, Inc.  All Rights Reserved.
  
 This is part of the Gaussian(R) 16 program.  It is based on
 the Gaussian(R) 09 system (copyright 2009, Gaussian, Inc.),
 the Gaussian(R) 03 system (copyright 2003, Gaussian, Inc.),
 the Gaussian(R) 98 system (copyright 1998, Gaussian, Inc.),
 the Gaussian(R) 94 system (copyright 1995, Gaussian, Inc.),
 the Gaussian 92(TM) system (copyright 1992, Gaussian, Inc.),
 the Gaussian 90(TM) system (copyright 1990, Gaussian, Inc.),
 the Gaussian 88(TM) system (copyright 1988, Gaussian, Inc.),
 the Gaussian 86(TM) system (copyright 1986, Carnegie Mellon
 University), and the Gaussian 82(TM) system (copyright 1983,
 Carnegie Mellon University). Gaussian is a federally registered
 trademark of Gaussian, Inc.
  
 This software contains proprietary and confidential information,
 including trade secrets, belonging to Gaussian, Inc.
  
 This software is provided under written license and may be
 used, copied, transmitted, or stored only in accord with that
 written license.
  
 The following legend is applicable only to US Government
 contracts under FAR:
  
                    RESTRICTED RIGHTS LEGEND
  
 Use, reproduction and disclosure by the US Government is
 subject to restrictions as set forth in subparagraphs (a)
 and (c) of the Commercial Computer Software - Restricted
 Rights clause in FAR 52.227-19.
  
 Gaussian, Inc.
 340 Quinnipiac St., Bldg. 40, Wallingford CT 06492
  
  
 ---------------------------------------------------------------
 Warning -- This program may not be used in any manner that
 competes with the business of Gaussian, Inc. or will provide
 assistance to any competitor of Gaussian, Inc.  The licensee
 of this program is prohibited from giving any competitor of
 Gaussian, Inc. access to this program.  By using this program,
 the user acknowledges that Gaussian, Inc. is engaged in the
 business of creating and licensing software in the field of
 computational chemistry and represents and warrants to the
 licensee that it is not a competitor of Gaussian, Inc. and that
 it will not use this program in any manner prohibited above.
 ---------------------------------------------------------------
  

 Cite this work as:
 Gaussian 16, Revision B.01,
 M. J. Frisch, G. W. Trucks, H. B. Schlegel, G. E. Scuseria, 
 M. A. Robb, J. R. Cheeseman, G. Scalmani, V. Barone, 
 G. A. Petersson, H. Nakatsuji, X. Li, M. Caricato, A. V. Marenich, 
 J. Bloino, B. G. Janesko, R. Gomperts, B. Mennucci, H. P. Hratchian, 
 J. V. Ortiz, A. F. Izmaylov, J. L. Sonnenberg, D. Williams-Young, 
 F. Ding, F. Lipparini, F. Egidi, J. Goings, B. Peng, A. Petrone, 
 T. Henderson, D. Ranasinghe, V. G. Zakrzewski, J. Gao, N. Rega, 
 G. Zheng, W. Liang, M. Hada, M. Ehara, K. Toyota, R. Fukuda, 
 J. Hasegawa, M. Ishida, T. Nakajima, Y. Honda, O. Kitao, H. Nakai, 
 T. Vreven, K. Throssell, J. A. Montgomery, Jr., J. E. Peralta, 
 F. Ogliaro, M. J. Bearpark, J. J. Heyd, E. N. Brothers, K. N. Kudin, 
 V. N. Staroverov, T. A. Keith, R. Kobayashi, J. Normand, 
 K. Raghavachari, A. P. Rendell, J. C. Burant, S. S. Iyengar, 
 J. Tomasi, M. Cossi, J. M. Millam, M. Klene, C. Adamo, R. Cammi, 
 J. W. Ochterski, R. L. Martin, K. Morokuma, O. Farkas, 
 J. B. Foresman, and D. J. Fox, Gaussian, Inc., Wallingford CT, 2016.
 
 ******************************************
 Gaussian 16:  EM64L-G16RevB.01 20-Dec-2017
                14-Jun-2025 
 ******************************************
 %chk=meth_thiophene_isomer_sp.chk
 --------------------------------------
 # hf/3-21g* pop=full geom=connectivity
 --------------------------------------
 1/38=1,57=2,172=1/1;
 2/12=2,17=6,18=5,40=1/2;
 3/5=5,7=1,11=9,25=1,30=1/1,2,3;
 4//1;
 5/5=2,38=5/2;
 6/7=3,28=1/1;
 99/5=1,9=1/99;
 ----------------------------------------
 methyl_thiophene_isomer sp with HF3-21G*
 ----------------------------------------
 Symbolic Z-matrix:
 Charge =  0 Multiplicity = 1
 C                    -0.94595   1.17147  -0.00017 
 C                     0.39843   1.27014   0.00105 
 C                     1.09434  -0.0174    0.00049 
 C                     0.12152  -1.15099   0.00169 
 S                    -1.52088  -0.42316  -0.00089 
 H                    -1.65001   2.00556  -0.00041 
 H                     0.96868   2.20381   0.002 
 C                     2.42109  -0.17055  -0.00138 
 H                     0.23738  -1.78861   0.90983 
 H                     0.2389   -1.79279  -0.90324 
 H                     2.89593  -1.15949  -0.00257 
 H                     3.10669   0.68604  -0.00157 
 
                          Input orientation:                          
 ---------------------------------------------------------------------
 Center     Atomic      Atomic             Coordinates (Angstroms)
 Number     Number       Type             X           Y           Z
 ---------------------------------------------------------------------
      1          6           0       -0.945947    1.171470   -0.000167
      2          6           0        0.398426    1.270140    0.001053
      3          6           0        1.094341   -0.017398    0.000493
      4          6           0        0.121519   -1.150986    0.001689
      5         16           0       -1.520882   -0.423161   -0.000887
      6          1           0       -1.650006    2.005559   -0.000413
      7          1           0        0.968675    2.203814    0.001997
      8          6           0        2.421086   -0.170553   -0.001378
      9          1           0        0.237377   -1.788606    0.909834
     10          1           0        0.238896   -1.792786   -0.903240
     11          1           0        2.895932   -1.159488   -0.002566
     12          1           0        3.106694    0.686042   -0.001566
 ---------------------------------------------------------------------
                    Distance matrix (angstroms):
                    1          2          3          4          5
     1  C    0.000000
     2  C    1.347990   0.000000
     3  C    2.361394   1.463575   0.000000
     4  C    2.556030   2.436910   1.493789   0.000000
     5  S    1.695110   2.559495   2.646514   1.796446   0.000000
     6  H    1.091514   2.176446   3.409369   3.619680   2.432150
     7  H    2.175205   1.094044   2.224764   3.460109   3.619240
     8  C    3.624629   2.483295   1.335557   2.499853   3.950054
     9  H    3.315178   3.194956   2.167595   1.115666   2.405271
    10  H    3.317560   3.197610   2.168069   1.115608   2.405604
    11  H    4.493707   3.484342   2.133098   2.774429   4.477770
    12  H    4.081610   2.770540   2.131759   3.505132   4.758654
                    6          7          8          9         10
     6  H    0.000000
     7  H    2.626176   0.000000
     8  C    4.616195   2.783366   0.000000
     9  H    4.334334   4.159132   2.866529   0.000000
    10  H    4.337104   4.162312   2.864777   1.813079   0.000000
    11  H    5.539231   3.876357   1.097029   2.880309   2.876129
    12  H    4.936327   2.621978   1.097184   3.897116   3.896392
                   11         12
    11  H    0.000000
    12  H    1.857526   0.000000
 Stoichiometry    C5H6S
 Framework group  C1[X(C5H6S)]
 Deg. of freedom    30
 Full point group                 C1      NOp   1
 Largest Abelian subgroup         C1      NOp   1
 Largest concise Abelian subgroup C1      NOp   1
                         Standard orientation:                         
 ---------------------------------------------------------------------
 Center     Atomic      Atomic             Coordinates (Angstroms)
 Number     Number       Type             X           Y           Z
 ---------------------------------------------------------------------
      1          6           0       -0.945948    1.171470   -0.000167
      2          6           0        0.398425    1.270140    0.001053
      3          6           0        1.094341   -0.017398    0.000493
      4          6           0        0.121519   -1.150986    0.001689
      5         16           0       -1.520882   -0.423162   -0.000887
      6          1           0       -1.650007    2.005558   -0.000413
      7          1           0        0.968674    2.203814    0.001997
      8          6           0        2.421086   -0.170552   -0.001378
      9          1           0        0.237378   -1.788606    0.909834
     10          1           0        0.238897   -1.792786   -0.903240
     11          1           0        2.895932   -1.159487   -0.002566
     12          1           0        3.106694    0.686043   -0.001566
 ---------------------------------------------------------------------
 Rotational constants (GHZ):           6.5965165           2.5933030           1.8844889
 Standard basis: 3-21G* (6D, 7F)
 There are    76 symmetry adapted cartesian basis functions of A   symmetry.
 There are    76 symmetry adapted basis functions of A   symmetry.
    76 basis functions,   126 primitive gaussians,    76 cartesian basis functions
    26 alpha electrons       26 beta electrons
       nuclear repulsion energy       270.9990616757 Hartrees.
 NAtoms=   12 NActive=   12 NUniq=   12 SFac= 1.00D+00 NAtFMM=   60 NAOKFM=F Big=F
 Integral buffers will be    131072 words long.
 Raffenetti 1 integral format.
 Two-electron integral symmetry is turned on.
 One-electron integrals computed using PRISM.
 NBasis=    76 RedAO= T EigKep=  5.20D-03  NBF=    76
 NBsUse=    76 1.00D-06 EigRej= -1.00D+00 NBFU=    76
 ExpMin= 1.42D-01 ExpMax= 1.21D+03 ExpMxC= 1.21D+03 IAcc=3 IRadAn=         5 AccDes= 0.00D+00
 Harris functional with IExCor=  205 and IRadAn=       5 diagonalized for initial guess.
 HarFok:  IExCor=  205 AccDes= 0.00D+00 IRadAn=         5 IDoV= 1 UseB2=F ITyADJ=14
 ICtDFT=  3500011 ScaDFX=  1.000000  1.000000  1.000000  1.000000
 FoFCou: FMM=F IPFlag=           0 FMFlag=      100000 FMFlg1=           0
         NFxFlg=           0 DoJE=T BraDBF=F KetDBF=T FulRan=T
         wScrn=  0.000000 ICntrl=       500 IOpCl=  0 I1Cent=   200000004 NGrid=           0
         NMat0=    1 NMatS0=      1 NMatT0=    0 NMatD0=    1 NMtDS0=    0 NMtDT0=    0
 Petite list used in FoFCou.
 Keep R1 ints in memory in canonical form, NReq=5131737.
 Requested convergence on RMS density matrix=1.00D-08 within 128 cycles.
 Requested convergence on MAX density matrix=1.00D-06.
 Requested convergence on             energy=1.00D-06.
 No special actions if energy rises.
 SCF Done:  E(RHF) =  -587.380969802     A.U. after   14 cycles
            NFock= 14  Conv=0.58D-08     -V/T= 2.0059

 **********************************************************************

            Population analysis using the SCF Density.

 **********************************************************************

 Orbital symmetries:
       Occupied  (A) (A) (A) (A) (A) (A) (A) (A) (A) (A) (A) (A)
                 (A) (A) (A) (A) (A) (A) (A) (A) (A) (A) (A) (A)
                 (A) (A)
       Virtual   (A) (A) (A) (A) (A) (A) (A) (A) (A) (A) (A) (A)
                 (A) (A) (A) (A) (A) (A) (A) (A) (A) (A) (A) (A)
                 (A) (A) (A) (A) (A) (A) (A) (A) (A) (A) (A) (A)
                 (A) (A) (A) (A) (A) (A) (A) (A) (A) (A) (A) (A)
                 (A) (A)
 The electronic state is 1-A.
 Alpha  occ. eigenvalues --  -91.42097 -11.21506 -11.21147 -11.20151 -11.18559
 Alpha  occ. eigenvalues --  -11.16913  -8.93600  -6.61548  -6.61410  -6.61129
 Alpha  occ. eigenvalues --   -1.17248  -1.04160  -0.99619  -0.89013  -0.77959
 Alpha  occ. eigenvalues --   -0.72663  -0.67497  -0.61729  -0.59604  -0.57051
 Alpha  occ. eigenvalues --   -0.53008  -0.49548  -0.46041  -0.45501  -0.39668
 Alpha  occ. eigenvalues --   -0.27717
 Alpha virt. eigenvalues --    0.11659   0.19773   0.23917   0.25536   0.28498
 Alpha virt. eigenvalues --    0.30292   0.31134   0.34382   0.34707   0.37306
 Alpha virt. eigenvalues --    0.43563   0.53290   0.57588   0.61909   0.65354
 Alpha virt. eigenvalues --    0.73700   0.74276   0.78961   0.83655   0.89260
 Alpha virt. eigenvalues --    0.90043   0.95916   0.97096   1.00911   1.01633
 Alpha virt. eigenvalues --    1.07270   1.09687   1.10323   1.12679   1.16257
 Alpha virt. eigenvalues --    1.22613   1.25141   1.29187   1.29439   1.30231
 Alpha virt. eigenvalues --    1.33128   1.36958   1.38275   1.40345   1.41106
 Alpha virt. eigenvalues --    1.45916   1.59299   1.62107   1.66359   1.79150
 Alpha virt. eigenvalues --    1.91583   2.01067   2.27874   2.40864   3.83393
     Molecular Orbital Coefficients:
                           1         2         3         4         5
                           O         O         O         O         O
     Eigenvalues --   -91.42097 -11.21506 -11.21147 -11.20151 -11.18559
   1 1   C  1S          0.00008   0.98725  -0.00988   0.00577   0.00025
   2        2S         -0.00044   0.09988  -0.00029   0.00012  -0.00379
   3        2PX         0.00026   0.00042  -0.00006  -0.00072  -0.00174
   4        2PY         0.00032  -0.00217   0.00044   0.00006   0.00029
   5        2PZ         0.00000   0.00000  -0.00000   0.00000  -0.00000
   6        3S          0.00206  -0.08099  -0.00389  -0.00398   0.03232
   7        3PX        -0.00140  -0.01216   0.00230  -0.00091   0.02021
   8        3PY         0.00017   0.01354   0.00382   0.00251  -0.00503
   9        3PZ        -0.00000  -0.00001   0.00001  -0.00000   0.00001
  10 2   C  1S         -0.00008  -0.00073  -0.00441  -0.01440   0.98719
  11        2S         -0.00056  -0.00381  -0.00138  -0.00434   0.09955
  12        2PX         0.00006   0.00175  -0.00033  -0.00008  -0.00114
  13        2PY         0.00026   0.00049   0.00091   0.00069  -0.00142
  14        2PZ         0.00000   0.00000  -0.00000   0.00000  -0.00000
  15        3S          0.00185   0.02920   0.00173   0.02477  -0.09000
  16        3PX        -0.00049  -0.01441   0.00554   0.00381   0.01317
  17        3PY        -0.00196  -0.00582  -0.00224  -0.01369   0.02048
  18        3PZ        -0.00000  -0.00002   0.00000  -0.00001   0.00003
  19 3   C  1S         -0.00002  -0.00592  -0.01196   0.98716   0.01377
  20        2S         -0.00023  -0.00108  -0.00309   0.09986  -0.00137
  21        2PX         0.00030   0.00116   0.00061  -0.00046   0.00078
  22        2PY        -0.00003  -0.00050   0.00074  -0.00015  -0.00072
  23        2PZ         0.00000  -0.00000  -0.00000  -0.00000  -0.00000
  24        3S         -0.00107  -0.00509   0.01895  -0.08684   0.02332
  25        3PX        -0.00184  -0.00735  -0.01706   0.00414  -0.01726
  26        3PY        -0.00118  -0.00283  -0.01851  -0.00174   0.01508
  27        3PZ        -0.00000   0.00001   0.00002   0.00001   0.00001
  28 4   C  1S          0.00010   0.01017   0.98789   0.01152   0.00445
  29        2S          0.00016   0.00215   0.10470  -0.00050  -0.00016
  30        2PX         0.00026   0.00004  -0.00113   0.00010  -0.00038
  31        2PY        -0.00017  -0.00014   0.00083  -0.00050  -0.00076
  32        2PZ         0.00000  -0.00000  -0.00000   0.00000  -0.00000
  33        3S          0.00006  -0.01115  -0.09437   0.01589  -0.00304
  34        3PX        -0.00150   0.00304  -0.00216   0.00675   0.00168
  35        3PY         0.00042  -0.00496  -0.01253   0.01064  -0.00253
  36        3PZ        -0.00000   0.00002   0.00001  -0.00003   0.00002
  37 5   S  1S          0.98493   0.00005   0.00002   0.00001   0.00001
  38        2S          0.07383  -0.00130  -0.00056  -0.00025  -0.00046
  39        2PX        -0.00007  -0.00008  -0.00041   0.00017   0.00013
  40        2PY        -0.00003  -0.00008   0.00016  -0.00007   0.00028
  41        2PZ        -0.00000  -0.00000  -0.00000  -0.00000   0.00000
  42        3S         -0.09549   0.00030  -0.00224  -0.00004  -0.00038
  43        3PX         0.00074   0.00094   0.00310  -0.00113  -0.00098
  44        3PY         0.00031   0.00215  -0.00134   0.00046  -0.00201
  45        3PZ         0.00000   0.00000   0.00001   0.00000  -0.00000
  46        4S         -0.01103   0.02844   0.02229   0.00237   0.00246
  47        4PX        -0.00281   0.01155   0.01247   0.00117   0.00055
  48        4PY        -0.00116   0.01072   0.00055   0.00019   0.00099
  49        4PZ        -0.00000   0.00002   0.00002  -0.00000   0.00000
  50        5XX         0.03928  -0.00129   0.00159  -0.00098  -0.00068
  51        5YY         0.03936  -0.00204  -0.00034  -0.00003  -0.00131
  52        5ZZ         0.03989  -0.00302  -0.00180  -0.00082  -0.00138
  53        5XY         0.00006   0.00061  -0.00079   0.00023  -0.00083
  54        5XZ        -0.00000   0.00000   0.00001  -0.00000   0.00000
  55        5YZ         0.00000   0.00000  -0.00000  -0.00000  -0.00000
  56 6   H  1S         -0.00038  -0.00191  -0.00006  -0.00024  -0.00021
  57        2S         -0.00035   0.00667   0.00050   0.00019   0.00370
  58 7   H  1S          0.00013  -0.00058  -0.00034  -0.00062  -0.00224
  59        2S          0.00076   0.00232   0.00015   0.00149   0.00547
  60 8   C  1S         -0.00002  -0.00129  -0.00263  -0.00025  -0.00546
  61        2S         -0.00012  -0.00086  -0.00108  -0.00393  -0.00124
  62        2PX        -0.00006  -0.00014   0.00053   0.00210   0.00033
  63        2PY        -0.00004  -0.00032   0.00026  -0.00027  -0.00014
  64        2PZ        -0.00000  -0.00000  -0.00000  -0.00000   0.00000
  65        3S          0.00162   0.00723   0.00586   0.02262   0.00765
  66        3PX        -0.00073  -0.00394  -0.00363  -0.01192  -0.00411
  67        3PY         0.00072   0.00373   0.00534   0.00184  -0.00294
  68        3PZ         0.00000   0.00001   0.00001   0.00001   0.00000
  69 9   H  1S         -0.00014   0.00049   0.00111  -0.00111  -0.00003
  70        2S          0.00097  -0.00109   0.01210   0.00258  -0.00021
  71 10  H  1S         -0.00014   0.00049   0.00111  -0.00111  -0.00003
  72        2S          0.00097  -0.00108   0.01209   0.00255  -0.00019
  73 11  H  1S          0.00003   0.00021   0.00027  -0.00087  -0.00056
  74        2S          0.00026   0.00152   0.00241   0.00038  -0.00041
  75 12  H  1S         -0.00011  -0.00069  -0.00065  -0.00099   0.00027
  76        2S         -0.00020  -0.00048  -0.00048   0.00013   0.00104
                           6         7         8         9        10
                           O         O         O         O         O
     Eigenvalues --   -11.16913  -8.93600  -6.61548  -6.61410  -6.61129
   1 1   C  1S          0.00104  -0.00021   0.00073   0.00057  -0.00000
   2        2S         -0.00058  -0.00015   0.00233   0.00238  -0.00000
   3        2PX        -0.00014   0.00009   0.00087   0.00120   0.00000
   4        2PY         0.00016  -0.00009   0.00108  -0.00011   0.00000
   5        2PZ        -0.00000  -0.00000   0.00000  -0.00000  -0.00059
   6        3S          0.00316   0.00146  -0.01954  -0.00969   0.00000
   7        3PX         0.00302  -0.00112  -0.01218  -0.00856  -0.00000
   8        3PY        -0.00144   0.00097   0.01701   0.01655  -0.00001
   9        3PZ         0.00000  -0.00000  -0.00001   0.00000   0.00262
  10 2   C  1S          0.00542  -0.00004  -0.00054  -0.00035  -0.00000
  11        2S          0.00020  -0.00047  -0.00318  -0.00201  -0.00000
  12        2PX        -0.00077   0.00001   0.00029  -0.00090   0.00000
  13        2PY         0.00016   0.00024   0.00117   0.00082   0.00000
  14        2PZ         0.00000  -0.00000   0.00000  -0.00000  -0.00021
  15        3S         -0.00172   0.00197   0.02808   0.01357  -0.00000
  16        3PX         0.00226  -0.00039  -0.01141  -0.00259  -0.00000
  17        3PY        -0.00015  -0.00218  -0.02503  -0.01175   0.00000
  18        3PZ         0.00000  -0.00000  -0.00002  -0.00001   0.00021
  19 3   C  1S         -0.00017  -0.00001   0.00038  -0.00025   0.00000
  20        2S         -0.00385  -0.00019   0.00202  -0.00163   0.00001
  21        2PX        -0.00293   0.00021  -0.00069   0.00089   0.00000
  22        2PY         0.00038  -0.00004  -0.00023  -0.00032  -0.00000
  23        2PZ         0.00000   0.00000   0.00000   0.00000  -0.00030
  24        3S          0.02610  -0.00073  -0.01968   0.00072  -0.00003
  25        3PX         0.01793  -0.00151   0.02141  -0.01313  -0.00001
  26        3PY        -0.00186  -0.00142  -0.00547  -0.01010   0.00001
  27        3PZ        -0.00003  -0.00000  -0.00002   0.00000   0.00154
  28 4   C  1S          0.00256  -0.00010  -0.00072   0.00097  -0.00000
  29        2S         -0.00035   0.00035  -0.00352   0.00504   0.00000
  30        2PX        -0.00078   0.00006  -0.00069   0.00068   0.00000
  31        2PY        -0.00010  -0.00009   0.00061  -0.00024   0.00000
  32        2PZ         0.00000   0.00000  -0.00000   0.00000   0.00029
  33        3S          0.00128  -0.00058   0.01418  -0.01964   0.00000
  34        3PX         0.00073  -0.00121   0.00116   0.00156  -0.00000
  35        3PY         0.00117   0.00030   0.00732  -0.00844  -0.00000
  36        3PZ         0.00000  -0.00000   0.00000   0.00000  -0.00135
  37 5   S  1S          0.00000  -0.29732   0.00037   0.00220  -0.00000
  38        2S         -0.00008   0.93661  -0.00121  -0.00708   0.00000
  39        2PX        -0.00000   0.00587  -0.24155   0.94295  -0.00147
  40        2PY         0.00003   0.00253   0.94249   0.24149   0.00008
  41        2PZ         0.00000   0.00001  -0.00044   0.00140   0.97483
  42        3S         -0.00036   0.31078  -0.00101  -0.00183   0.00000
  43        3PX        -0.00007   0.00234  -0.02117   0.08243  -0.00012
  44        3PY        -0.00022   0.00110   0.08426   0.02191   0.00001
  45        3PZ        -0.00000   0.00000  -0.00004   0.00012   0.07953
  46        4S          0.00093  -0.01715   0.00706   0.00959  -0.00001
  47        4PX         0.00043  -0.00285   0.00999  -0.01932   0.00003
  48        4PY         0.00007  -0.00101  -0.02238  -0.00343  -0.00000
  49        4PZ         0.00000  -0.00000   0.00001  -0.00003  -0.02462
  50        5XX         0.00010  -0.08953  -0.00097   0.00403  -0.00000
  51        5YY        -0.00025  -0.08926   0.00276   0.00295   0.00000
  52        5ZZ        -0.00029  -0.08962  -0.00023   0.00068   0.00000
  53        5XY        -0.00009   0.00003   0.00288   0.00100  -0.00000
  54        5XZ         0.00000   0.00000  -0.00000   0.00001   0.00043
  55        5YZ        -0.00000  -0.00000   0.00000   0.00000  -0.00002
  56 6   H  1S          0.00013  -0.00032  -0.00175  -0.00106  -0.00000
  57        2S          0.00118  -0.00039  -0.00324  -0.00877   0.00001
  58 7   H  1S         -0.00013   0.00014   0.00175   0.00070  -0.00000
  59        2S         -0.00043   0.00076   0.00887   0.00351  -0.00000
  60 8   C  1S          0.98682  -0.00001   0.00003  -0.00005  -0.00000
  61        2S          0.09647  -0.00006   0.00007  -0.00011  -0.00000
  62        2PX        -0.00027  -0.00007   0.00035  -0.00058   0.00000
  63        2PY         0.00005  -0.00005  -0.00016  -0.00047   0.00000
  64        2PZ         0.00000  -0.00000  -0.00000   0.00000   0.00014
  65        3S         -0.07180   0.00119  -0.00967   0.00792   0.00002
  66        3PX         0.00974  -0.00044   0.00416  -0.00225  -0.00002
  67        3PY        -0.00141   0.00082   0.00133   0.00683  -0.00000
  68        3PZ        -0.00002   0.00000  -0.00001   0.00001  -0.00081
  69 9   H  1S         -0.00017  -0.00006  -0.00027   0.00094  -0.00031
  70        2S          0.00016   0.00111  -0.00356   0.00127   0.00333
  71 10  H  1S         -0.00017  -0.00006  -0.00026   0.00094   0.00031
  72        2S          0.00017   0.00111  -0.00357   0.00125  -0.00332
  73 11  H  1S         -0.00119   0.00007   0.00025   0.00064  -0.00000
  74        2S          0.01168   0.00026   0.00072   0.00207   0.00000
  75 12  H  1S         -0.00111  -0.00011   0.00001  -0.00086   0.00000
  76        2S          0.01187  -0.00028  -0.00093  -0.00249   0.00000
                          11        12        13        14        15
                           O         O         O         O         O
     Eigenvalues --    -1.17248  -1.04160  -0.99619  -0.89013  -0.77959
   1 1   C  1S         -0.10614   0.10388   0.07893  -0.04330  -0.10347
   2        2S          0.11280  -0.10816  -0.08754   0.04448   0.10737
   3        2PX         0.05076  -0.00312  -0.09858  -0.12337  -0.00747
   4        2PY        -0.04518   0.03419  -0.05418  -0.05736   0.14984
   5        2PZ         0.00004  -0.00001  -0.00009  -0.00012   0.00007
   6        3S          0.24054  -0.27707  -0.16471   0.15080   0.33974
   7        3PX         0.00867  -0.01135  -0.01136  -0.05147  -0.02303
   8        3PY        -0.05205   0.03831  -0.02616  -0.03336   0.08822
   9        3PZ         0.00001  -0.00002  -0.00003  -0.00006   0.00003
  10 2   C  1S         -0.10346   0.01373   0.13035   0.08346   0.03050
  11        2S          0.11440  -0.01376  -0.13592  -0.08755  -0.03233
  12        2PX        -0.04063   0.09550   0.04538  -0.00162  -0.15939
  13        2PY        -0.05542  -0.02940   0.00063   0.02509   0.10684
  14        2PZ        -0.00007   0.00003   0.00008  -0.00002  -0.00003
  15        3S          0.17726  -0.02787  -0.33803  -0.23394  -0.07693
  16        3PX        -0.01847   0.00743   0.01533   0.00507  -0.06250
  17        3PY        -0.01013   0.00225   0.03100   0.02151   0.03360
  18        3PZ        -0.00003   0.00001   0.00005   0.00001  -0.00001
  19 3   C  1S         -0.10841  -0.13266   0.02198   0.01912   0.05190
  20        2S          0.12017   0.14137  -0.02311  -0.01870  -0.05319
  21        2PX        -0.03336   0.09703  -0.03592   0.18035   0.04255
  22        2PY         0.00543  -0.02806  -0.10682  -0.01586  -0.15322
  23        2PZ        -0.00000  -0.00011   0.00006  -0.00026  -0.00001
  24        3S          0.19405   0.31708  -0.05694  -0.04331  -0.17940
  25        3PX        -0.00606  -0.00164  -0.00114   0.07385   0.05409
  26        3PY         0.01918  -0.00712   0.00325  -0.00597  -0.08629
  27        3PZ         0.00000  -0.00002  -0.00000  -0.00010  -0.00005
  28 4   C  1S         -0.09689  -0.03583  -0.13866   0.08633  -0.07169
  29        2S          0.08866   0.03907   0.12450  -0.08086   0.06476
  30        2PX        -0.00150   0.07240  -0.03131  -0.05000   0.07870
  31        2PY         0.05134   0.01209  -0.00478  -0.00447  -0.09998
  32        2PZ        -0.00006  -0.00001  -0.00002  -0.00013   0.00015
  33        3S          0.27382   0.06374   0.44918  -0.27701   0.27178
  34        3PX        -0.01820   0.02135  -0.01567  -0.01985   0.04688
  35        3PY         0.03132  -0.01750   0.01630  -0.00065  -0.04892
  36        3PZ        -0.00003   0.00005   0.00002  -0.00008   0.00011
  37 5   S  1S          0.03040  -0.02790   0.02879   0.03352  -0.02880
  38        2S         -0.16337   0.15290  -0.15933  -0.18708   0.16324
  39        2PX        -0.04034   0.01381  -0.03280   0.01560   0.00268
  40        2PY        -0.02277   0.03564   0.02943  -0.04511  -0.01007
  41        2PZ        -0.00005   0.00003  -0.00006   0.00002  -0.00001
  42        3S          0.18635  -0.16622   0.17595   0.20226  -0.17721
  43        3PX         0.07345  -0.02579   0.05945  -0.02866  -0.00802
  44        3PY         0.04224  -0.06603  -0.05365   0.08791   0.01901
  45        3PZ         0.00009  -0.00005   0.00011  -0.00004   0.00003
  46        4S          0.05400  -0.12431   0.15190   0.23629  -0.26169
  47        4PX        -0.02160  -0.00184   0.00452   0.00448  -0.01783
  48        4PY        -0.01243   0.00168  -0.00052   0.01564  -0.00140
  49        4PZ        -0.00002  -0.00000   0.00002   0.00000  -0.00002
  50        5XX         0.03025  -0.01280   0.03303   0.00331  -0.02543
  51        5YY         0.03309  -0.03894   0.00945   0.04685  -0.00811
  52        5ZZ         0.00507  -0.00369   0.00421   0.00843  -0.00815
  53        5XY         0.00633  -0.01111  -0.01963   0.01353  -0.00112
  54        5XZ         0.00004  -0.00002   0.00005  -0.00001  -0.00002
  55        5YZ         0.00001  -0.00001  -0.00003   0.00002   0.00000
  56 6   H  1S          0.03514  -0.05107  -0.04157   0.04549   0.14602
  57        2S          0.00506  -0.01660  -0.00547   0.01725   0.07148
  58 7   H  1S          0.03325   0.00153  -0.07109  -0.04892  -0.02017
  59        2S          0.00026   0.00283  -0.02487  -0.01691  -0.00597
  60 8   C  1S         -0.04415  -0.13030   0.02858  -0.13289  -0.03737
  61        2S          0.05071   0.14272  -0.03097   0.13988   0.03917
  62        2PX        -0.04472  -0.09069   0.01331  -0.00573   0.03867
  63        2PY         0.00542   0.00656  -0.02266   0.00322  -0.06513
  64        2PZ         0.00006   0.00014  -0.00002   0.00002  -0.00005
  65        3S          0.07820   0.29206  -0.06674   0.35008   0.10456
  66        3PX        -0.00133  -0.01574   0.00141   0.00489   0.02795
  67        3PY        -0.00901   0.00555  -0.01694  -0.00277  -0.02972
  68        3PZ         0.00000   0.00005  -0.00001  -0.00000  -0.00003
  69 9   H  1S          0.03387   0.02152   0.07386  -0.05415   0.08357
  70        2S         -0.00850  -0.00048   0.00612  -0.01480   0.04721
  71 10  H  1S          0.03385   0.02155   0.07389  -0.05408   0.08373
  72        2S         -0.00847  -0.00042   0.00620  -0.01478   0.04731
  73 11  H  1S          0.01499   0.05921  -0.00793   0.08657   0.06868
  74        2S         -0.00623   0.00665  -0.00101   0.02798   0.04148
  75 12  H  1S          0.01634   0.05633  -0.01996   0.08877   0.01579
  76        2S          0.00039   0.00186  -0.00381   0.03096   0.00114
                          16        17        18        19        20
                           O         O         O         O         O
     Eigenvalues --    -0.72663  -0.67497  -0.61729  -0.59604  -0.57051
   1 1   C  1S         -0.04701  -0.00088  -0.00008  -0.02145  -0.02817
   2        2S          0.04464   0.00314   0.00006   0.01957   0.03555
   3        2PX        -0.09574   0.21732  -0.00109  -0.12683   0.21728
   4        2PY        -0.04120  -0.11347   0.00006   0.02543  -0.06040
   5        2PZ        -0.00011   0.00017   0.06412  -0.00051   0.00022
   6        3S          0.19337  -0.00800   0.00043   0.08465   0.05067
   7        3PX        -0.05190   0.17178  -0.00088  -0.10940   0.15360
   8        3PY        -0.03917  -0.10491   0.00020   0.04168  -0.05703
   9        3PZ        -0.00006   0.00014   0.05830  -0.00045   0.00015
  10 2   C  1S          0.08012   0.00255   0.00016   0.02658   0.00638
  11        2S         -0.07985   0.00119  -0.00016  -0.02725  -0.00381
  12        2PX        -0.04319  -0.19713   0.00068   0.07133  -0.21483
  13        2PY        -0.15177  -0.12073  -0.00068  -0.16346  -0.04456
  14        2PZ        -0.00011  -0.00018   0.06549  -0.00046  -0.00025
  15        3S         -0.30306  -0.06672  -0.00039  -0.08965  -0.02768
  16        3PX        -0.03269  -0.10086   0.00033   0.02068  -0.16471
  17        3PY        -0.07284  -0.09551  -0.00051  -0.13641  -0.08627
  18        3PZ        -0.00006  -0.00012   0.05592  -0.00043  -0.00017
  19 3   C  1S         -0.09489   0.04288   0.00002   0.00095   0.00267
  20        2S          0.09588  -0.04542  -0.00004  -0.00217   0.00450
  21        2PX        -0.04059  -0.14194  -0.00061  -0.10399   0.26861
  22        2PY        -0.09055  -0.03217   0.00081   0.16622   0.03126
  23        2PZ         0.00001   0.00007   0.12015  -0.00049  -0.00026
  24        3S          0.33351  -0.17699  -0.00012  -0.01681  -0.01486
  25        3PX        -0.07419  -0.11125  -0.00038  -0.08240   0.26770
  26        3PY        -0.04727  -0.01736   0.00050   0.11360   0.00321
  27        3PZ         0.00003   0.00007   0.07901  -0.00033  -0.00025
  28 4   C  1S          0.02765   0.00266  -0.00013  -0.02643   0.01155
  29        2S         -0.01828  -0.00293   0.00009   0.02097  -0.01470
  30        2PX         0.13671  -0.01017  -0.00024  -0.03187  -0.06922
  31        2PY         0.13515   0.08247   0.00044  -0.05093  -0.17723
  32        2PZ        -0.00009  -0.00001   0.33821  -0.00160   0.00072
  33        3S         -0.15598  -0.00501   0.00055   0.11201  -0.00226
  34        3PX         0.08330  -0.00771  -0.00017  -0.01803  -0.06235
  35        3PY         0.07138   0.06679   0.00050  -0.04140  -0.12422
  36        3PZ        -0.00003  -0.00004   0.31454  -0.00155   0.00067
  37 5   S  1S         -0.01214  -0.00989  -0.00007  -0.01470  -0.00000
  38        2S          0.06976   0.05753   0.00042   0.08515   0.00001
  39        2PX         0.00881  -0.05050   0.00003  -0.02425  -0.00951
  40        2PY        -0.07667  -0.00744  -0.00026  -0.02005   0.01432
  41        2PZ         0.00005  -0.00005  -0.06995   0.00035  -0.00017
  42        3S         -0.07432  -0.06172  -0.00048  -0.09490  -0.00025
  43        3PX        -0.01607   0.10211  -0.00007   0.05078   0.01728
  44        3PY         0.15331   0.01408   0.00054   0.04236  -0.02864
  45        3PZ        -0.00011   0.00010   0.14420  -0.00072   0.00035
  46        4S         -0.13018  -0.12724  -0.00078  -0.16153  -0.01032
  47        4PX        -0.01014   0.03222  -0.00001   0.03118   0.00527
  48        4PY         0.04295   0.00416   0.00023   0.01981  -0.01713
  49        4PZ        -0.00005   0.00003   0.08711  -0.00046   0.00022
  50        5XX        -0.02007   0.01441  -0.00012  -0.00692  -0.00347
  51        5YY         0.01509  -0.01232   0.00004   0.00496   0.00222
  52        5ZZ        -0.00638  -0.00823   0.00000  -0.01126   0.00035
  53        5XY         0.02823   0.01228   0.00004  -0.00362   0.00530
  54        5XZ        -0.00004   0.00004   0.02237  -0.00011   0.00005
  55        5YZ         0.00004   0.00001  -0.00075  -0.00001  -0.00001
  56 6   H  1S          0.05817  -0.13347   0.00056   0.09236  -0.09847
  57        2S          0.03607  -0.07721   0.00035   0.06431  -0.08209
  58 7   H  1S         -0.15356  -0.12168  -0.00025  -0.09205  -0.10873
  59        2S         -0.09659  -0.07954  -0.00014  -0.05663  -0.07672
  60 8   C  1S          0.04970  -0.04366  -0.00006  -0.00150  -0.01113
  61        2S         -0.04777   0.03526   0.00003  -0.00356   0.02334
  62        2PX        -0.14030   0.19801   0.00106   0.14755  -0.23073
  63        2PY        -0.03616  -0.06999   0.00110   0.26193   0.13404
  64        2PZ         0.00015  -0.00033   0.05405  -0.00034   0.00043
  65        3S         -0.16082   0.21553   0.00041   0.04624  -0.07478
  66        3PX        -0.07502   0.08904   0.00069   0.08724  -0.10451
  67        3PY        -0.01882  -0.04405   0.00090   0.21192   0.09971
  68        3PZ         0.00009  -0.00016   0.05102  -0.00027   0.00022
  69 9   H  1S         -0.05372  -0.03191   0.17977   0.03748   0.05328
  70        2S         -0.03487  -0.01995   0.13078   0.02743   0.05054
  71 10  H  1S         -0.05383  -0.03208  -0.17932   0.03931   0.05284
  72        2S         -0.03492  -0.02007  -0.13042   0.02880   0.05015
  73 11  H  1S         -0.05694   0.12408  -0.00035  -0.11439  -0.13822
  74        2S         -0.03580   0.09185  -0.00027  -0.08839  -0.12883
  75 12  H  1S         -0.10578   0.07524   0.00102   0.19696  -0.01594
  76        2S         -0.07368   0.05441   0.00079   0.16121  -0.02986
                          21        22        23        24        25
                           O         O         O         O         O
     Eigenvalues --    -0.53008  -0.49548  -0.46041  -0.45501  -0.39668
   1 1   C  1S         -0.00719  -0.00266   0.00004  -0.01898   0.00007
   2        2S          0.00113  -0.00201  -0.00003   0.01383  -0.00007
   3        2PX        -0.06318   0.02998   0.00015  -0.11082  -0.00001
   4        2PY        -0.26209  -0.10289   0.00025  -0.09364   0.00001
   5        2PZ        -0.00016   0.00010   0.25521   0.00078   0.07428
   6        3S          0.08928   0.09140  -0.00034   0.11660  -0.00032
   7        3PX        -0.03089   0.09064  -0.00012  -0.05060  -0.00011
   8        3PY        -0.26443  -0.14686   0.00035  -0.11211   0.00002
   9        3PZ        -0.00012   0.00014   0.27599   0.00089   0.08623
  10 2   C  1S         -0.02064   0.02426  -0.00008   0.01759  -0.00003
  11        2S          0.02191  -0.02237   0.00007  -0.02020   0.00002
  12        2PX         0.10704  -0.04517  -0.00053   0.11039  -0.00006
  13        2PY        -0.02478   0.24819  -0.00049   0.03471   0.00015
  14        2PZ         0.00011   0.00029   0.23757   0.00067  -0.07121
  15        3S          0.04088  -0.12566   0.00050  -0.10001   0.00024
  16        3PX         0.08946   0.05006  -0.00051   0.07641   0.00002
  17        3PY         0.05240   0.25951  -0.00066   0.04591   0.00020
  18        3PZ         0.00014   0.00031   0.24203   0.00070  -0.07607
  19 3   C  1S          0.02205   0.01361  -0.00011   0.02034  -0.00004
  20        2S         -0.02614  -0.01473   0.00012  -0.01526   0.00003
  21        2PX        -0.00934   0.02428  -0.00025   0.12015  -0.00063
  22        2PY         0.06158  -0.24843  -0.00010   0.07527  -0.00028
  23        2PZ         0.00020   0.00012   0.11620  -0.00035  -0.25442
  24        3S         -0.04797  -0.04930   0.00034  -0.11245   0.00026
  25        3PX        -0.05302  -0.03425  -0.00004   0.10074  -0.00060
  26        3PY         0.07974  -0.22650  -0.00026   0.11561  -0.00039
  27        3PZ         0.00022   0.00014   0.12991  -0.00031  -0.29906
  28 4   C  1S          0.00142  -0.02440   0.00009  -0.01507  -0.00002
  29        2S          0.00394   0.02505  -0.00006   0.00184   0.00004
  30        2PX         0.14510   0.10525   0.00065  -0.22869   0.00057
  31        2PY        -0.21099   0.16667  -0.00034   0.01781   0.00008
  32        2PZ         0.00019  -0.00037  -0.16144  -0.00063   0.00983
  33        3S         -0.03113   0.06749  -0.00056   0.14443  -0.00011
  34        3PX         0.16585   0.06948   0.00055  -0.20811   0.00049
  35        3PY        -0.20744   0.15093  -0.00034   0.06174   0.00008
  36        3PZ         0.00016  -0.00032  -0.14839  -0.00055   0.04607
  37 5   S  1S         -0.00512  -0.00229   0.00006  -0.02049   0.00002
  38        2S          0.03007   0.01540  -0.00036   0.12498  -0.00013
  39        2PX         0.04614  -0.04181   0.00066  -0.20254   0.00066
  40        2PY        -0.15750  -0.06777   0.00023  -0.04990  -0.00008
  41        2PZ         0.00012   0.00006  -0.09604  -0.00080  -0.16651
  42        3S         -0.02893  -0.01413   0.00042  -0.14502   0.00015
  43        3PX        -0.09565   0.08655  -0.00139   0.42715  -0.00140
  44        3PY         0.32891   0.14024  -0.00048   0.10617   0.00016
  45        3PZ        -0.00026  -0.00012   0.20300   0.00170   0.35475
  46        4S         -0.09531  -0.09868   0.00102  -0.37838   0.00050
  47        4PX        -0.04540   0.03816  -0.00102   0.28878  -0.00116
  48        4PY         0.13756   0.07396  -0.00033   0.07348   0.00010
  49        4PZ        -0.00013  -0.00013   0.17792   0.00136   0.34213
  50        5XX        -0.05555   0.00657  -0.00009   0.03538  -0.00013
  51        5YY         0.05782   0.01167  -0.00007   0.02308  -0.00004
  52        5ZZ        -0.00624  -0.00598   0.00010  -0.03417   0.00008
  53        5XY         0.05301   0.02180  -0.00003  -0.01277   0.00006
  54        5XZ        -0.00009  -0.00001   0.00661   0.00017   0.01066
  55        5YZ         0.00007   0.00005   0.03413   0.00010   0.01325
  56 6   H  1S         -0.11576  -0.08075  -0.00001   0.02193  -0.00011
  57        2S         -0.09427  -0.05418  -0.00009   0.04212  -0.00017
  58 7   H  1S          0.05083   0.12678  -0.00032   0.04810   0.00009
  59        2S          0.02323   0.10511  -0.00027   0.05231   0.00006
  60 8   C  1S          0.00967  -0.00248   0.00004  -0.01342   0.00003
  61        2S         -0.01139   0.00301  -0.00005   0.01486  -0.00003
  62        2PX         0.04561  -0.00718   0.00034  -0.08789  -0.00010
  63        2PY        -0.05223   0.18778   0.00024  -0.07341   0.00032
  64        2PZ         0.00001   0.00029   0.08065  -0.00012  -0.23343
  65        3S         -0.00150   0.03061  -0.00015   0.04085  -0.00017
  66        3PX         0.01118  -0.00983   0.00028  -0.07638  -0.00012
  67        3PY        -0.05804   0.21612   0.00028  -0.10478   0.00044
  68        3PZ         0.00005   0.00030   0.07798  -0.00017  -0.26200
  69 9   H  1S          0.10054  -0.04284  -0.11034  -0.01732   0.01016
  70        2S          0.09964  -0.05358  -0.12530  -0.02097  -0.00866
  71 10  H  1S          0.10106  -0.04278   0.11025  -0.01677  -0.01004
  72        2S          0.10009  -0.05352   0.12530  -0.02020   0.00881
  73 11  H  1S          0.04387  -0.13901  -0.00016   0.04026  -0.00013
  74        2S          0.04447  -0.12749  -0.00010   0.02819  -0.00012
  75 12  H  1S         -0.01901   0.12317   0.00025  -0.07835   0.00020
  76        2S         -0.00674   0.11371   0.00024  -0.07315   0.00024
                          26        27        28        29        30
                           O         V         V         V         V
     Eigenvalues --    -0.27717   0.11659   0.19773   0.23917   0.25536
   1 1   C  1S         -0.00002   0.00008   0.05931  -0.00024   0.08886
   2        2S          0.00002  -0.00006  -0.02524   0.00008  -0.04246
   3        2PX         0.00018  -0.00026   0.06738  -0.00038   0.11728
   4        2PY         0.00003  -0.00001   0.11797  -0.00071   0.09712
   5        2PZ        -0.17997   0.27636  -0.00027  -0.16227  -0.00051
   6        3S          0.00010  -0.00087  -0.76660   0.00253  -1.04140
   7        3PX         0.00028  -0.00040   0.06922  -0.00134   0.63608
   8        3PY         0.00007  -0.00009   0.27175  -0.00239   0.36766
   9        3PZ        -0.24446   0.57653  -0.00088  -0.51094  -0.00128
  10 2   C  1S         -0.00000  -0.00001  -0.01748  -0.00003   0.01999
  11        2S          0.00000   0.00005   0.01542   0.00003  -0.00118
  12        2PX         0.00017   0.00018  -0.06842  -0.00019  -0.00123
  13        2PY         0.00011   0.00002   0.05842  -0.00056   0.00403
  14        2PZ        -0.22080  -0.17464   0.00044   0.25725   0.00075
  15        3S          0.00004  -0.00025   0.18879   0.00023  -0.45002
  16        3PX         0.00034   0.00007  -0.23103  -0.00121   0.08036
  17        3PY         0.00006   0.00020   0.17804  -0.00137   0.04078
  18        3PZ        -0.30315  -0.37360   0.00122   0.67673   0.00229
  19 3   C  1S         -0.00003   0.00002   0.00633  -0.00012   0.02290
  20        2S          0.00004  -0.00000  -0.00777  -0.00007  -0.01452
  21        2PX         0.00000  -0.00023   0.02797  -0.00051   0.03448
  22        2PY        -0.00011   0.00015   0.07764  -0.00064   0.07963
  23        2PZ         0.11842  -0.18934  -0.00033  -0.24656  -0.00065
  24        3S          0.00013  -0.00025   0.05137   0.00268  -0.39082
  25        3PX         0.00003  -0.00046   0.10797  -0.00198   0.09202
  26        3PY        -0.00034   0.00060   0.22492  -0.00169   0.30972
  27        3PZ         0.16788  -0.34931  -0.00075  -0.55538  -0.00150
  28 4   C  1S         -0.00002  -0.00002  -0.09175   0.00012   0.08820
  29        2S          0.00004   0.00001   0.03672  -0.00000  -0.03341
  30        2PX         0.00003   0.00003  -0.18733  -0.00031   0.08810
  31        2PY         0.00007  -0.00002   0.05624  -0.00052   0.06803
  32        2PZ        -0.07253  -0.00454  -0.00041  -0.10422  -0.00041
  33        3S          0.00001   0.00027   1.02922  -0.00169  -1.04312
  34        3PX        -0.00001   0.00055  -0.51314  -0.00177   0.53314
  35        3PY        -0.00020  -0.00031   0.23486  -0.00304   0.44236
  36        3PZ        -0.09475  -0.11610  -0.00139  -0.51804  -0.00231
  37 5   S  1S          0.00000  -0.00000  -0.00459  -0.00010   0.01876
  38        2S          0.00000   0.00001   0.02811   0.00059  -0.12296
  39        2PX         0.00012   0.00001   0.07519   0.00029  -0.05871
  40        2PY         0.00001  -0.00006  -0.11747   0.00029  -0.04421
  41        2PZ        -0.16275   0.04885   0.00005  -0.03243  -0.00021
  42        3S         -0.00001  -0.00015  -0.01946  -0.00063  -0.00489
  43        3PX        -0.00025  -0.00003  -0.14744  -0.00065   0.11870
  44        3PY        -0.00001   0.00011   0.21911  -0.00056   0.07950
  45        3PZ         0.35271  -0.10551  -0.00008   0.06470   0.00041
  46        4S         -0.00001   0.00053  -0.15768  -0.00322   1.14410
  47        4PX        -0.00035   0.00027  -0.59725  -0.00190   0.63347
  48        4PY         0.00003   0.00041   0.99741  -0.00300   0.58406
  49        4PZ         0.41794  -0.21503  -0.00055   0.25745   0.00207
  50        5XX         0.00005   0.00001   0.07777  -0.00022   0.02320
  51        5YY         0.00002  -0.00010  -0.07305   0.00029  -0.09799
  52        5ZZ        -0.00003   0.00003  -0.01327  -0.00038   0.08443
  53        5XY        -0.00001  -0.00005  -0.09188   0.00013   0.02384
  54        5XZ        -0.00512   0.00585   0.00012  -0.03782  -0.00027
  55        5YZ        -0.01099   0.05203  -0.00022  -0.05679  -0.00010
  56 6   H  1S         -0.00004   0.00005  -0.04299  -0.00000   0.04755
  57        2S         -0.00005   0.00032  -0.02986   0.00005   0.63548
  58 7   H  1S          0.00000   0.00005  -0.02754   0.00032  -0.02816
  59        2S          0.00004   0.00021  -0.22831   0.00225   0.00516
  60 8   C  1S          0.00005   0.00004  -0.03303  -0.00015   0.02631
  61        2S         -0.00006  -0.00006   0.02848   0.00011  -0.01999
  62        2PX         0.00041   0.00036  -0.01370   0.00016  -0.02437
  63        2PY        -0.00016  -0.00020   0.02139  -0.00056   0.05892
  64        2PZ         0.22008   0.23465   0.00034   0.12636   0.00036
  65        3S         -0.00021  -0.00015   0.25137   0.00167  -0.28216
  66        3PX         0.00043   0.00061   0.12727   0.00117  -0.22354
  67        3PY        -0.00011  -0.00040   0.06188  -0.00203   0.09798
  68        3PZ         0.29068   0.49861   0.00063   0.42306   0.00142
  69 9   H  1S         -0.06884   0.05728   0.01864   0.06010   0.03346
  70        2S         -0.09275   0.23920  -0.08486   0.60147   0.69284
  71 10  H  1S          0.06858  -0.05712   0.01869  -0.06017   0.03327
  72        2S          0.09207  -0.23889  -0.08560  -0.60198   0.68970
  73 11  H  1S          0.00003   0.00005   0.02132  -0.00019  -0.00095
  74        2S          0.00013   0.00011  -0.05095  -0.00340   0.40936
  75 12  H  1S          0.00001  -0.00002  -0.03053   0.00017   0.00337
  76        2S          0.00004   0.00006  -0.33579   0.00105   0.11041
                          31        32        33        34        35
                           V         V         V         V         V
     Eigenvalues --     0.28498   0.30292   0.31134   0.34382   0.34707
   1 1   C  1S          0.03467   0.05024   0.05888   0.03191   0.00036
   2        2S         -0.01588  -0.02173  -0.03618  -0.01042  -0.00031
   3        2PX         0.08307   0.10074   0.01473  -0.03439  -0.00059
   4        2PY        -0.16922  -0.01374  -0.06197   0.09068   0.00081
   5        2PZ         0.00020  -0.00005   0.00020   0.00051  -0.04545
   6        3S         -0.56042  -0.59067  -0.68713  -0.53562  -0.00370
   7        3PX         0.33560   0.54782   0.24482  -0.37593  -0.00262
   8        3PY        -0.72115  -0.08494  -0.40280   0.47702   0.00270
   9        3PZ         0.00085  -0.00022   0.00071   0.00143  -0.13622
  10 2   C  1S          0.04736  -0.02535  -0.04619  -0.05476  -0.00071
  11        2S         -0.01610   0.03022   0.03724   0.02166   0.00030
  12        2PX        -0.10250   0.02834   0.06022   0.02591   0.00067
  13        2PY        -0.14091  -0.06378   0.01493  -0.02357   0.00038
  14        2PZ        -0.00052   0.00041  -0.00036  -0.00090   0.08217
  15        3S         -0.77247   0.01724   0.37466   0.81189   0.01009
  16        3PX        -0.42785   0.26320   0.08823  -0.10166   0.00127
  17        3PY        -0.50619  -0.11225   0.42514  -0.15571   0.00237
  18        3PZ        -0.00152   0.00111  -0.00100  -0.00348   0.33277
  19 3   C  1S          0.00479   0.03148   0.00861  -0.02262  -0.00011
  20        2S         -0.00300   0.01097  -0.02881   0.00612   0.00007
  21        2PX        -0.01409   0.06619  -0.03078  -0.02159  -0.00048
  22        2PY        -0.04828   0.00410  -0.03829  -0.09286  -0.00083
  23        2PZ         0.00019  -0.00031   0.00060   0.00165  -0.18948
  24        3S         -0.13268  -0.47249   0.34120   0.31088   0.00223
  25        3PX        -0.16642   0.23229  -0.13097   0.13357  -0.00082
  26        3PY        -0.02289   0.10309  -0.02725  -0.23979  -0.00274
  27        3PZ         0.00055  -0.00105   0.00181   0.00590  -0.71132
  28 4   C  1S          0.00557  -0.08845   0.02593   0.05477   0.00047
  29        2S         -0.02131   0.00264  -0.00714  -0.02179  -0.00018
  30        2PX        -0.11545   0.10714   0.08987  -0.11398  -0.00055
  31        2PY        -0.00482  -0.17584  -0.06842  -0.03885   0.00020
  32        2PZ         0.00072   0.00025  -0.00030  -0.00188   0.28831
  33        3S          0.08885   1.43415  -0.31944  -0.64177  -0.00609
  34        3PX        -0.45228   0.48956   0.15761  -0.30118  -0.00212
  35        3PY         0.09101  -0.65439  -0.24244  -0.13494   0.00089
  36        3PZ         0.00315   0.00082  -0.00168  -0.00926   1.40196
  37 5   S  1S         -0.01417   0.01622   0.00807   0.00386   0.00007
  38        2S          0.08629  -0.09057  -0.05103  -0.02868  -0.00047
  39        2PX         0.03461  -0.04462  -0.03286  -0.00510  -0.00015
  40        2PY         0.00159   0.00465  -0.00085  -0.02433  -0.00017
  41        2PZ         0.00011  -0.00008  -0.00001   0.00016  -0.01534
  42        3S         -0.05336   0.16273   0.04178  -0.03999   0.00008
  43        3PX        -0.04467   0.11066   0.06113  -0.00485   0.00010
  44        3PY        -0.00411  -0.04164  -0.00023   0.03548   0.00031
  45        3PZ        -0.00017   0.00019  -0.00003  -0.00054   0.06172
  46        4S         -0.65218   0.32493   0.21975   0.40683   0.00371
  47        4PX        -0.69932   0.23796   0.27466   0.28992   0.00389
  48        4PY        -0.11189   0.32235  -0.04603   0.46234   0.00204
  49        4PZ        -0.00182   0.00066   0.00065   0.00139  -0.22031
  50        5XX         0.03345   0.03428  -0.02481  -0.01826  -0.00036
  51        5YY        -0.01838  -0.00289  -0.00417  -0.01277  -0.00011
  52        5ZZ        -0.05296   0.03624   0.02782   0.02500   0.00048
  53        5XY         0.01998  -0.00286   0.02734  -0.07115  -0.00027
  54        5XZ         0.00035  -0.00005  -0.00021  -0.00046   0.07590
  55        5YZ         0.00004  -0.00014   0.00014   0.00022  -0.03542
  56 6   H  1S          0.03350   0.03414   0.03404  -0.01223   0.00007
  57        2S          1.18470   0.77379   0.84503  -0.43533  -0.00257
  58 7   H  1S          0.05782  -0.03811   0.02707  -0.02512  -0.00009
  59        2S          1.23842  -0.13105  -0.56514  -0.24316  -0.00815
  60 8   C  1S         -0.01557   0.04674  -0.11314   0.03556   0.00007
  61        2S          0.01188  -0.01395   0.04561  -0.01023   0.00006
  62        2PX        -0.06879  -0.04300   0.14624  -0.05600  -0.00015
  63        2PY        -0.06617  -0.02039  -0.05458  -0.25096  -0.00159
  64        2PZ         0.00006  -0.00002  -0.00051  -0.00101   0.11858
  65        3S          0.16962  -0.59965   1.48137  -0.58361  -0.00169
  66        3PX        -0.28581  -0.22138   0.69133  -0.14248  -0.00002
  67        3PY        -0.25579  -0.14588  -0.32683  -1.15872  -0.00780
  68        3PZ        -0.00001   0.00042  -0.00207  -0.00403   0.39571
  69 9   H  1S          0.00558  -0.02827   0.01641  -0.01150  -0.02391
  70        2S          0.15158  -1.03865  -0.05614   0.21575  -1.27410
  71 10  H  1S          0.00608  -0.02841   0.01663  -0.01170   0.02375
  72        2S          0.15905  -1.04121  -0.05991   0.19922   1.27623
  73 11  H  1S         -0.00559   0.01511  -0.05309  -0.04089  -0.00058
  74        2S         -0.22575   0.23638  -1.38636  -0.96828  -0.00780
  75 12  H  1S         -0.00499   0.01800   0.00084   0.05409   0.00062
  76        2S          0.37075   0.53738  -0.85913   1.51866   0.00889
                          36        37        38        39        40
                           V         V         V         V         V
     Eigenvalues --     0.37306   0.43563   0.53290   0.57588   0.61909
   1 1   C  1S         -0.00948   0.07104   0.05462  -0.00914  -0.06648
   2        2S          0.02374  -0.01611   0.01592   0.05992  -0.02605
   3        2PX        -0.00936  -0.02056  -0.02036   0.08492   0.17086
   4        2PY         0.16477  -0.06396   0.04218  -0.03385   0.07629
   5        2PZ         0.00000   0.00018  -0.00001   0.00005   0.00049
   6        3S         -0.21176  -1.40072  -1.36290  -0.78783   2.02246
   7        3PX        -0.23027  -0.54512  -1.29394  -0.65072   2.17924
   8        3PY         1.17648  -0.18790   0.65499   0.09120   0.56239
   9        3PZ        -0.00010  -0.00033  -0.00053  -0.00082   0.00249
  10 2   C  1S          0.09473   0.00382  -0.11829  -0.03847   0.05674
  11        2S         -0.04216  -0.01054  -0.00218  -0.02106  -0.03107
  12        2PX        -0.05872  -0.11716  -0.08988  -0.01091   0.16871
  13        2PY        -0.14494   0.07970  -0.14999  -0.07294  -0.00434
  14        2PZ         0.00003  -0.00009  -0.00017  -0.00023   0.00005
  15        3S         -1.22219   0.33494   2.73944   1.53560  -1.38447
  16        3PX        -0.64049  -0.97220  -0.22213  -0.69150   2.70552
  17        3PY        -0.80244   0.68859  -1.61403  -1.50418  -0.41925
  18        3PZ        -0.00024  -0.00070  -0.00208  -0.00014   0.00140
  19 3   C  1S         -0.03108  -0.15052   0.10743  -0.03197  -0.04080
  20        2S          0.02783   0.03448  -0.02111   0.00674  -0.00120
  21        2PX        -0.08120  -0.09300  -0.06218   0.27936  -0.03380
  22        2PY         0.09368  -0.07757  -0.18658  -0.04096  -0.29202
  23        2PZ        -0.00016   0.00029   0.00019  -0.00051   0.00024
  24        3S          0.27324   2.74017  -2.21769   1.47531   0.61482
  25        3PX         0.08442  -0.40998  -0.08477   3.72388  -0.65788
  26        3PY         0.37730  -0.48413  -1.66596  -0.65801  -2.03764
  27        3PZ        -0.00095   0.00083   0.00102  -0.00487  -0.00012
  28 4   C  1S          0.00528   0.07504   0.02720  -0.01753   0.05316
  29        2S         -0.00008   0.00712   0.01188  -0.01935   0.03093
  30        2PX         0.06132  -0.03747  -0.02509   0.06896  -0.06853
  31        2PY        -0.11952  -0.12042   0.02213  -0.00688  -0.06820
  32        2PZ         0.00067   0.00017  -0.00010   0.00019   0.00001
  33        3S          0.04803  -1.27397  -0.74760   0.74817  -1.40670
  34        3PX         0.40989  -0.59649  -0.09562  -0.09842  -1.11633
  35        3PY        -0.44304  -1.12755  -0.33251   1.13285  -1.00243
  36        3PZ         0.00282   0.00116   0.00045   0.00090   0.00175
  37 5   S  1S          0.01360   0.00653  -0.00480  -0.00302  -0.01276
  38        2S         -0.08635  -0.04290   0.00925   0.01075   0.04785
  39        2PX        -0.00096   0.00038   0.01005  -0.02380   0.00329
  40        2PY        -0.00784  -0.03443   0.08916   0.07421  -0.05215
  41        2PZ        -0.00006   0.00002   0.00007  -0.00029   0.00002
  42        3S          0.00668   0.00144  -0.26085  -0.05236  -0.41034
  43        3PX        -0.03681  -0.04795  -0.05783   0.04950  -0.00836
  44        3PY         0.01386   0.08960  -0.31410  -0.23763   0.13424
  45        3PZ         0.00015  -0.00010  -0.00024   0.00100  -0.00003
  46        4S          1.05579   0.29032   0.81557  -0.15131   0.88474
  47        4PX         0.77649   0.54887   0.60743  -0.16038  -0.13729
  48        4PY         0.53163   0.15674   0.53509   0.21617   0.75454
  49        4PZ         0.00067   0.00039   0.00058  -0.00156  -0.00076
  50        5XX        -0.02129  -0.10293  -0.05787  -0.05230  -0.05162
  51        5YY        -0.01577   0.08798  -0.04793  -0.01778  -0.12891
  52        5ZZ         0.07595   0.02353   0.03175   0.00145   0.03251
  53        5XY        -0.00799  -0.05751  -0.13600  -0.04912   0.02679
  54        5XZ        -0.00004  -0.00019  -0.00004   0.00033   0.00018
  55        5YZ        -0.00007  -0.00017  -0.00010   0.00001  -0.00028
  56 6   H  1S         -0.00437  -0.06878   0.03562  -0.01824   0.02247
  57        2S         -1.05674   0.36496  -0.60394  -0.08931   0.16705
  58 7   H  1S         -0.00678   0.01271   0.03289  -0.00246   0.03480
  59        2S          1.57470  -0.08836   0.47671   0.86663  -0.39239
  60 8   C  1S         -0.03807   0.05922  -0.05328   0.09107   0.01708
  61        2S          0.01419   0.00032   0.00736   0.05125  -0.04143
  62        2PX         0.07342  -0.00426  -0.00652   0.02918   0.09114
  63        2PY        -0.03998   0.12230   0.12937   0.01010  -0.04203
  64        2PZ        -0.00003   0.00002   0.00014   0.00016  -0.00021
  65        3S          0.45559  -0.92758   0.75491  -3.16948   0.14170
  66        3PX         0.30665   0.55231  -0.66522   2.82999   0.27602
  67        3PY        -0.22720   0.58162   1.08694  -0.14703   0.88363
  68        3PZ        -0.00003  -0.00073   0.00093  -0.00396   0.00021
  69 9   H  1S          0.01374  -0.03985  -0.05774   0.03160  -0.04639
  70        2S         -0.33689  -0.17095   0.00515   0.29943  -0.03616
  71 10  H  1S          0.01409  -0.03985  -0.05784   0.03147  -0.04617
  72        2S         -0.33348  -0.17168   0.00481   0.30333  -0.03564
  73 11  H  1S          0.01004  -0.03422  -0.06887  -0.07627  -0.01451
  74        2S         -0.56886   0.78132   0.75675  -0.22223   0.39941
  75 12  H  1S         -0.03569   0.03655   0.09598  -0.07718  -0.00676
  76        2S         -0.30167  -0.31692  -0.71271  -0.47554  -0.64355
                          41        42        43        44        45
                           V         V         V         V         V
     Eigenvalues --     0.65354   0.73700   0.74276   0.78961   0.83655
   1 1   C  1S          0.01777  -0.00002  -0.00419  -0.06630  -0.01228
   2        2S         -0.05150  -0.00007   0.02298   0.06507  -0.03998
   3        2PX        -0.05669  -0.00036   0.08943   0.05180  -0.38749
   4        2PY        -0.04498   0.00059  -0.16428  -0.23197  -0.00504
   5        2PZ        -0.00010  -0.06059  -0.00028   0.00020  -0.00026
   6        3S         -0.91001   0.00025  -0.22787   0.38488  -0.20584
   7        3PX        -0.29654   0.00030  -0.05527   0.66681   0.50978
   8        3PY         0.23467  -0.00036   0.15364  -0.06115   0.05301
   9        3PZ        -0.00033  -0.13204  -0.00045   0.00056   0.00072
  10 2   C  1S          0.01267  -0.00005   0.01427   0.07249  -0.01534
  11        2S         -0.04552   0.00004  -0.01956  -0.08301  -0.01848
  12        2PX         0.03146   0.00041  -0.04279   0.01226   0.38887
  13        2PY         0.07208  -0.00006   0.02897   0.17362  -0.00528
  14        2PZ         0.00010  -0.06531  -0.00027   0.00019  -0.00027
  15        3S         -0.06230   0.00001   0.01394  -1.12813  -0.27084
  16        3PX        -0.65029  -0.00136   0.25889   0.55280  -0.41689
  17        3PY         0.36038  -0.00074   0.08586   0.70238  -0.02856
  18        3PZ        -0.00014   0.04347   0.00037   0.00084  -0.00045
  19 3   C  1S          0.00470  -0.00016   0.03473  -0.04366   0.00774
  20        2S         -0.01914   0.00037  -0.04247   0.01405   0.02704
  21        2PX         0.05544   0.00020   0.08741  -0.14767   0.24300
  22        2PY         0.11124  -0.00010  -0.02546   0.06106  -0.02030
  23        2PZ         0.00039  -0.07371   0.00008  -0.00003   0.00016
  24        3S          0.12253   0.00199  -0.09543   0.45466   0.23431
  25        3PX        -0.04901   0.00073   0.27112  -0.66120  -0.45019
  26        3PY         0.77712  -0.00023   0.13801   0.31315  -0.09664
  27        3PZ         0.00001   0.00150  -0.00004   0.00050   0.00050
  28 4   C  1S         -0.01905   0.00012  -0.04916   0.02724   0.01280
  29        2S          0.02740  -0.00039   0.16557  -0.06145  -0.02338
  30        2PX         0.08903   0.00012   0.02321  -0.00411  -0.19226
  31        2PY        -0.06186  -0.00025   0.11327   0.03005  -0.27102
  32        2PZ         0.00035   0.07025   0.00041   0.00002  -0.00105
  33        3S          0.08693   0.00104  -0.25201  -0.07410  -0.20609
  34        3PX         0.67183  -0.00030   0.13942  -0.18061   0.03997
  35        3PY        -0.12297   0.00026   0.07729  -0.36064   0.01347
  36        3PZ         0.00063  -0.05604  -0.00029   0.00021   0.00121
  37 5   S  1S         -0.05053   0.00002  -0.01069  -0.00185  -0.00138
  38        2S          0.20622  -0.00009   0.03853   0.01551   0.01156
  39        2PX        -0.08174  -0.00141   0.33179  -0.00087   0.06707
  40        2PY         0.01079   0.00016  -0.00077   0.33139   0.08274
  41        2PZ        -0.00020   0.34273   0.00139  -0.00005  -0.00011
  42        3S         -1.51052   0.00081  -0.39561  -0.00767  -0.02046
  43        3PX         0.24404   0.00509  -1.21011   0.01785  -0.21069
  44        3PY        -0.03122  -0.00062   0.01736  -1.18404  -0.28431
  45        3PZ         0.00061  -1.24094  -0.00508   0.00022   0.00049
  46        4S          2.56645  -0.00172   0.79987  -0.02266   0.12865
  47        4PX         0.44261  -0.00576   1.46515  -0.13342   0.05926
  48        4PY         0.08195   0.00063  -0.00658   1.28000   0.37347
  49        4PZ         0.00057   1.26167   0.00565  -0.00043  -0.00099
  50        5XX        -0.26686   0.00074  -0.20634  -0.00570   0.24806
  51        5YY        -0.24750  -0.00023   0.01361   0.09493  -0.17725
  52        5ZZ         0.01787  -0.00036   0.08217  -0.05183  -0.03251
  53        5XY         0.03984   0.00021   0.00821  -0.00895   0.28966
  54        5XZ        -0.00058  -0.08572  -0.00084   0.00020   0.00091
  55        5YZ         0.00015  -0.08139  -0.00006  -0.00021   0.00013
  56 6   H  1S         -0.11425   0.00015  -0.03956  -0.23832   0.19688
  57        2S         -0.08039  -0.00082   0.18213   0.27814  -0.12119
  58 7   H  1S          0.00236   0.00010   0.00514   0.04899   0.23001
  59        2S         -0.05729   0.00093  -0.19090  -0.44854  -0.02321
  60 8   C  1S          0.00172   0.00006   0.00169  -0.00221   0.00240
  61        2S          0.01726  -0.00000   0.04352  -0.04824   0.09736
  62        2PX        -0.05023   0.00009  -0.12641   0.11813  -0.30917
  63        2PY        -0.00565   0.00040  -0.10775  -0.06613   0.20429
  64        2PZ        -0.00004   0.03031   0.00042  -0.00032   0.00037
  65        3S         -0.00240  -0.00107  -0.22355   0.39736   0.07318
  66        3PX        -0.05334   0.00178   0.22012  -0.43048   0.31199
  67        3PY        -0.32220  -0.00049   0.02231  -0.07741  -0.17415
  68        3PZ        -0.00013   0.00547  -0.00059   0.00084  -0.00062
  69 9   H  1S         -0.01884  -0.05233   0.05751  -0.00693   0.11634
  70        2S         -0.28657  -0.12198  -0.13331   0.08282  -0.07332
  71 10  H  1S         -0.01868   0.05226   0.05741  -0.00642   0.11836
  72        2S         -0.28636   0.12239  -0.13135   0.08261  -0.07501
  73 11  H  1S          0.02470  -0.00049   0.09571   0.07360  -0.18321
  74        2S         -0.17602  -0.00006  -0.08978  -0.10602   0.11999
  75 12  H  1S         -0.01215   0.00025  -0.10697  -0.02760   0.15372
  76        2S          0.25378  -0.00062   0.10001   0.17462  -0.09549
                          46        47        48        49        50
                           V         V         V         V         V
     Eigenvalues --     0.89260   0.90043   0.95916   0.97096   1.00911
   1 1   C  1S          0.00027  -0.01874  -0.00680   0.00001   0.00069
   2        2S          0.00021  -0.04674   0.12478   0.00036  -0.00125
   3        2PX         0.00113  -0.11364   0.23647  -0.00012  -0.00477
   4        2PY         0.00329  -0.33301   0.12387   0.00022  -0.00393
   5        2PZ        -0.05572  -0.00105  -0.00163   0.74810  -0.42613
   6        3S          0.00075  -0.18861  -0.08776  -0.00137  -0.00953
   7        3PX        -0.00521   0.36081  -0.49331  -0.00172  -0.00471
   8        3PY        -0.00706   0.69906  -0.44902  -0.00162   0.00953
   9        3PZ         0.04070   0.00082   0.00048  -0.56938   0.40678
  10 2   C  1S         -0.00000  -0.00697   0.05049   0.00011  -0.00086
  11        2S          0.00045  -0.07217   0.00148   0.00003  -0.00319
  12        2PX        -0.00382   0.34813  -0.25873  -0.00112  -0.00275
  13        2PY         0.00341  -0.30723   0.36507   0.00084   0.00153
  14        2PZ        -0.25790  -0.00309  -0.00177   0.36218   0.23958
  15        3S          0.00323  -0.09687   0.12440   0.00105   0.01930
  16        3PX         0.00120  -0.24522  -0.07869  -0.00128  -0.00509
  17        3PY        -0.00124   0.04496  -0.20924  -0.00058  -0.01074
  18        3PZ         0.22217   0.00295   0.00145  -0.20130  -0.25402
  19 3   C  1S         -0.00008   0.02033  -0.06881  -0.00012  -0.00047
  20        2S          0.00094  -0.09774   0.00101  -0.00033  -0.00158
  21        2PX        -0.00081   0.00633  -0.06712   0.00057  -0.00275
  22        2PY        -0.00131   0.11893   0.31493   0.00166  -0.00516
  23        2PZ        -0.27055  -0.00284  -0.00114   0.31526   0.24594
  24        3S         -0.00127   0.02896  -0.18123   0.00025  -0.01097
  25        3PX        -0.00300   0.56629   0.52766   0.00202   0.02174
  26        3PY         0.00034   0.05817   0.22451   0.00099  -0.00231
  27        3PZ        -0.06189  -0.00145  -0.00029  -0.26993  -0.10466
  28 4   C  1S          0.00014  -0.02591  -0.00383  -0.00009   0.00026
  29        2S         -0.00018   0.04643  -0.06303   0.00009  -0.00111
  30        2PX         0.00500  -0.38856  -0.52510  -0.00146  -0.00333
  31        2PY        -0.00157   0.21919  -0.27936   0.00072  -0.01058
  32        2PZ        -0.51646  -0.00546   0.00045  -0.07655  -0.18125
  33        3S          0.00074   0.05699   0.14808   0.00044   0.00557
  34        3PX        -0.00685   0.68214   0.88119   0.00378   0.00054
  35        3PY         0.00228  -0.14072   0.36888  -0.00019   0.02206
  36        3PZ         0.77444   0.00829  -0.00010   0.18758   0.18147
  37 5   S  1S          0.00009  -0.00948  -0.00603  -0.00003  -0.00002
  38        2S         -0.00057   0.06137   0.03011   0.00016   0.00007
  39        2PX        -0.00051   0.05338   0.06535   0.00025   0.00010
  40        2PY         0.00014  -0.03400  -0.02569  -0.00013  -0.00016
  41        2PZ         0.00935   0.00027   0.00014   0.01156   0.01520
  42        3S          0.00269  -0.30163  -0.20395  -0.00092  -0.00017
  43        3PX         0.00116  -0.13289  -0.22616  -0.00077  -0.00066
  44        3PY        -0.00083   0.15843   0.05955   0.00034   0.00161
  45        3PZ        -0.01096  -0.00066  -0.00050  -0.04308  -0.05438
  46        4S         -0.00868   0.91590   0.22720   0.00146   0.00142
  47        4PX        -0.00348   0.44913   0.42741   0.00199  -0.00073
  48        4PY        -0.00168   0.03156  -0.51904  -0.00217  -0.00010
  49        4PZ        -0.21049  -0.00099   0.00077   0.13767  -0.06112
  50        5XX        -0.00265   0.09264   0.15570   0.00087  -0.00216
  51        5YY        -0.00224   0.24469  -0.16628  -0.00057   0.00112
  52        5ZZ         0.00340  -0.19310   0.00707  -0.00008   0.00084
  53        5XY         0.00133  -0.13134  -0.04432   0.00038   0.00284
  54        5XZ         0.56090   0.00645   0.00040   0.05227   0.30300
  55        5YZ        -0.19944  -0.00212   0.00092  -0.51146   0.15001
  56 6   H  1S          0.00314  -0.34152   0.21239   0.00088  -0.00025
  57        2S         -0.00114   0.13309  -0.00598  -0.00005  -0.00386
  58 7   H  1S          0.00189  -0.26652   0.31739   0.00082  -0.00735
  59        2S         -0.00194   0.25970  -0.09632   0.00028   0.00721
  60 8   C  1S         -0.00009   0.00463   0.02685   0.00008   0.00031
  61        2S          0.00073  -0.06522  -0.15580  -0.00058  -0.00190
  62        2PX        -0.00262   0.23337   0.41047   0.00173   0.00747
  63        2PY        -0.00226   0.19276   0.12302   0.00026  -0.00283
  64        2PZ        -0.20063  -0.00279  -0.00255   0.22561   0.85717
  65        3S          0.00138  -0.27941  -0.25430  -0.00128  -0.01200
  66        3PX        -0.00012   0.04808  -0.16810  -0.00015  -0.00283
  67        3PY         0.00435  -0.41934  -0.47265  -0.00195   0.00684
  68        3PZ         0.19717   0.00206   0.00168  -0.14554  -0.74979
  69 9   H  1S         -0.36553  -0.20589  -0.09434  -0.10371  -0.00578
  70        2S          0.09257  -0.00596  -0.02812   0.02625   0.02499
  71 10  H  1S          0.36836  -0.19990  -0.09444   0.10225   0.01174
  72        2S         -0.09246  -0.00670  -0.02794  -0.02671  -0.01858
  73 11  H  1S          0.00305  -0.24543  -0.12232  -0.00059   0.00241
  74        2S          0.00039  -0.05595  -0.16288  -0.00097   0.00360
  75 12  H  1S         -0.00233   0.17356   0.13614   0.00015  -0.00041
  76        2S          0.00099  -0.04081   0.13948   0.00080  -0.00177
                          51        52        53        54        55
                           V         V         V         V         V
     Eigenvalues --     1.01633   1.07270   1.09687   1.10323   1.12679
   1 1   C  1S          0.04647  -0.00009  -0.03246  -0.01297   0.00007
   2        2S         -0.09423   0.00038   0.08597   0.02797  -0.00036
   3        2PX        -0.35673   0.00130   0.34969   0.05358  -0.00108
   4        2PY        -0.23843  -0.00020  -0.05461   0.00316   0.00030
   5        2PZ         0.00778  -0.03865   0.00462   0.00135   0.42242
   6        3S         -0.56827   0.00142   0.23962   0.17409  -0.00058
   7        3PX        -0.21386  -0.00078  -0.32763   0.11043   0.00177
   8        3PY         0.56803   0.00076   0.19545   0.00453  -0.00031
   9        3PZ        -0.00813  -0.03949  -0.00531  -0.00150  -0.49279
  10 2   C  1S         -0.06123   0.00012   0.03166   0.01435  -0.00002
  11        2S         -0.18092   0.00037   0.09600   0.00586  -0.00064
  12        2PX        -0.17563   0.00143   0.28583   0.01825  -0.00054
  13        2PY         0.08902  -0.00072  -0.29016   0.03726   0.00150
  14        2PZ        -0.00374  -0.89362   0.00261  -0.00090  -0.15306
  15        3S          1.06333   0.00164   0.47882   0.10763  -0.00347
  16        3PX        -0.29702   0.00003  -0.03435   0.15587   0.00023
  17        3PY        -0.58171  -0.00044  -0.09262  -0.12511   0.00036
  18        3PZ         0.00365   0.97398  -0.00282   0.00091   0.03772
  19 3   C  1S         -0.02193  -0.00000  -0.00133   0.04220  -0.00002
  20        2S         -0.11847   0.00053   0.18345  -0.13560  -0.00055
  21        2PX        -0.13850  -0.00041  -0.19303  -0.60406   0.00169
  22        2PY        -0.39056   0.00101   0.18593   0.09468  -0.00048
  23        2PZ        -0.00455   0.24028  -0.00358  -0.00086  -0.82177
  24        3S         -0.57902  -0.00224  -0.62536  -0.19089   0.00202
  25        3PX         1.15045   0.00314   0.90782   0.72885  -0.00681
  26        3PY        -0.02353  -0.00242  -0.52361  -0.10876   0.00223
  27        3PZ         0.00152  -0.38577   0.00471   0.00131   1.08578
  28 4   C  1S          0.01818  -0.00002  -0.00296  -0.00125  -0.00004
  29        2S         -0.06453  -0.00005   0.02256  -0.01129   0.00011
  30        2PX        -0.20232   0.00141   0.11000  -0.08884  -0.00058
  31        2PY        -0.57022  -0.00202  -0.45791  -0.24756   0.00208
  32        2PZ         0.00396   0.04272   0.00086   0.00038   0.02484
  33        3S          0.30265   0.00123   0.19203   0.25870  -0.00248
  34        3PX         0.06043  -0.00375  -0.54064   0.01595   0.00294
  35        3PY         1.19471   0.00587   1.47614   0.61793  -0.00800
  36        3PZ        -0.00461  -0.08827  -0.00342  -0.00154  -0.18079
  37 5   S  1S         -0.00100   0.00003   0.00413   0.00150  -0.00003
  38        2S          0.00425  -0.00016  -0.02396  -0.00903   0.00017
  39        2PX         0.00505  -0.00006  -0.00896  -0.01015   0.00010
  40        2PY        -0.00477  -0.00004  -0.02353  -0.00896   0.00003
  41        2PZ        -0.00018  -0.03318   0.00021  -0.00004  -0.01877
  42        3S         -0.01797   0.00128   0.21104   0.06601  -0.00157
  43        3PX        -0.03321  -0.00001  -0.00957   0.02630  -0.00020
  44        3PY         0.07722   0.00033   0.12673   0.04259  -0.00031
  45        3PZ         0.00060   0.12593  -0.00091   0.00014   0.07588
  46        4S          0.12989  -0.00392  -0.69576  -0.18481   0.00453
  47        4PX        -0.03331  -0.00237  -0.39934  -0.16629   0.00274
  48        4PY         0.03027  -0.00002  -0.18945  -0.07986   0.00054
  49        4PZ         0.00158  -0.12620   0.00176   0.00011   0.01579
  50        5XX        -0.07388  -0.00162  -0.41970  -0.18383   0.00229
  51        5YY         0.05993   0.00085   0.18018   0.10262  -0.00055
  52        5ZZ         0.00487   0.00032   0.16316   0.05839  -0.00135
  53        5XY         0.18375   0.00040  -0.06981  -0.04055  -0.00048
  54        5XZ        -0.00478  -0.14497   0.00123  -0.00039  -0.18328
  55        5YZ        -0.00254  -0.42486   0.00257  -0.00017   0.20210
  56 6   H  1S          0.00010  -0.00063  -0.22963  -0.10245   0.00057
  57        2S         -0.23554  -0.00030  -0.02954   0.12168   0.00029
  58 7   H  1S         -0.49199   0.00071   0.27170   0.04618  -0.00059
  59        2S          0.43725  -0.00080  -0.18344  -0.09121   0.00068
  60 8   C  1S          0.01676   0.00007   0.01467  -0.08314   0.00011
  61        2S         -0.10307   0.00092   0.14855  -0.16961  -0.00000
  62        2PX         0.33402   0.00070  -0.02047  -0.39891   0.00094
  63        2PY        -0.15606   0.00031   0.10227   0.07617  -0.00052
  64        2PZ        -0.01389   0.30763  -0.00066   0.00173   0.53912
  65        3S         -0.61863  -0.00366  -0.72696   0.19228   0.00455
  66        3PX        -0.06724  -0.00210  -0.13264   0.59971  -0.00223
  67        3PY         0.41590  -0.00032  -0.08140  -0.12765   0.00029
  68        3PZ         0.01177  -0.21178  -0.00065  -0.00245  -0.78606
  69 9   H  1S          0.18502   0.12454   0.29244   0.05062  -0.10180
  70        2S          0.17333  -0.01942   0.25053   0.09720   0.10174
  71 10  H  1S          0.18542  -0.12228   0.29280   0.05031   0.09830
  72        2S          0.17459   0.02177   0.25136   0.09712  -0.10447
  73 11  H  1S          0.15196   0.00123   0.19748  -0.69078   0.00052
  74        2S          0.20648   0.00041   0.06449   0.19827  -0.00097
  75 12  H  1S         -0.06518   0.00284   0.49866  -0.61971  -0.00019
  76        2S         -0.12345  -0.00034  -0.13085   0.18137   0.00014
                          56        57        58        59        60
                           V         V         V         V         V
     Eigenvalues --     1.16257   1.22613   1.25141   1.29187   1.29439
   1 1   C  1S         -0.00015  -0.02259  -0.04796  -0.03465   0.00056
   2        2S          0.00028   0.11144  -0.12681   0.04940  -0.00236
   3        2PX         0.00148  -0.03801   0.18792  -0.50398   0.01230
   4        2PY         0.00026   0.03113   0.66535   0.36589  -0.00413
   5        2PZ        -0.55268   0.00043   0.00071   0.00052   0.04708
   6        3S          0.00057   0.21336  -0.05305   0.75579  -0.01870
   7        3PX        -0.00222   0.01609  -0.87019   0.97507  -0.03093
   8        3PY        -0.00076  -0.71333  -1.40355  -1.23405   0.02161
   9        3PZ         1.00609  -0.00125  -0.00211  -0.00006  -0.03465
  10 2   C  1S          0.00008  -0.00209   0.01355   0.01323  -0.00037
  11        2S          0.00019   0.16263  -0.13493  -0.13820   0.00121
  12        2PX         0.00087  -0.10399   0.30643  -0.39948   0.01008
  13        2PY        -0.00134  -0.27144  -0.01024  -0.46026   0.01188
  14        2PZ         0.36118  -0.00101  -0.00044   0.00057   0.06098
  15        3S          0.00104  -0.74416  -0.04979  -0.06752   0.01606
  16        3PX        -0.00037  -0.10567  -1.00036   1.09937  -0.02825
  17        3PY         0.00115   1.01567   0.66394   1.26768  -0.03279
  18        3PZ        -0.77767   0.00220   0.00146  -0.00019  -0.06292
  19 3   C  1S          0.00000  -0.01584   0.00211  -0.00093  -0.00013
  20        2S          0.00042   0.22845  -0.04888  -0.11917   0.00277
  21        2PX        -0.00053  -0.09549   0.02919   0.15986  -0.00307
  22        2PY        -0.00015  -0.31620  -0.41930   0.24300  -0.00255
  23        2PZ        -0.35706   0.00046   0.00153  -0.00185  -0.06434
  24        3S         -0.00190   0.18226   0.09343   0.52009  -0.01134
  25        3PX         0.00174  -0.24101  -0.06123  -0.61337   0.01608
  26        3PY        -0.00024   1.28624   1.51618  -0.84858   0.00573
  27        3PZ         0.56990  -0.00110  -0.00284  -0.00066  -0.15144
  28 4   C  1S          0.00003   0.00975   0.02778  -0.02119   0.00053
  29        2S          0.00012  -0.02513  -0.11500   0.10270  -0.00248
  30        2PX        -0.00126  -0.62300  -0.12039   0.05746  -0.00008
  31        2PY        -0.00120   0.49266  -0.18537  -0.11691   0.00240
  32        2PZ         0.00707  -0.00191   0.00023  -0.01547  -0.97424
  33        3S         -0.00006   0.73863   0.37350  -0.51869   0.00905
  34        3PX         0.00122   0.95917   0.91393  -0.52560   0.00557
  35        3PY         0.00411  -0.45301   0.27667   0.02716  -0.00046
  36        3PZ         0.05602   0.00224   0.00132   0.02328   1.52398
  37 5   S  1S          0.00000   0.00114   0.00250   0.00379  -0.00005
  38        2S          0.00000   0.00593  -0.02375  -0.01677   0.00014
  39        2PX         0.00004  -0.02592   0.02516   0.01582  -0.00017
  40        2PY        -0.00009   0.01731  -0.01126   0.01483  -0.00041
  41        2PZ        -0.04477  -0.00003   0.00002   0.00037   0.02088
  42        3S          0.00016   0.09881   0.06552   0.23502  -0.00341
  43        3PX        -0.00018   0.15514  -0.13988  -0.08197   0.00078
  44        3PY         0.00038  -0.09822  -0.01802  -0.08837   0.00196
  45        3PZ         0.18463   0.00020  -0.00009  -0.00155  -0.08522
  46        4S         -0.00103  -0.21104  -0.53502  -0.96797   0.01428
  47        4PX         0.00010  -0.07830   0.30259  -0.39509   0.00942
  48        4PY        -0.00186  -0.37134  -1.00217  -0.20780   0.00066
  49        4PZ        -0.46720   0.00013   0.00045  -0.00124  -0.06766
  50        5XX        -0.00038  -0.20878   0.27711  -0.02859   0.00214
  51        5YY         0.00066  -0.26061  -0.16058  -0.23611   0.00241
  52        5ZZ        -0.00031   0.56523  -0.23243   0.22418  -0.00442
  53        5XY        -0.00025   0.11073  -0.19390  -0.02003   0.00371
  54        5XZ        -0.40398  -0.00139   0.00049  -0.00396  -0.25923
  55        5YZ        -0.61963   0.00087   0.00030   0.00001   0.01447
  56 6   H  1S         -0.00095  -0.02634  -0.68340  -0.50578   0.00555
  57        2S          0.00046   0.31290   0.85830   1.16692  -0.02186
  58 7   H  1S          0.00088   0.04219  -0.05983   0.21039  -0.00815
  59        2S         -0.00089  -0.35698   0.01838  -1.05669   0.02794
  60 8   C  1S          0.00006   0.00512  -0.00013   0.00602  -0.00019
[...]
  49        4PZ         0.00000   0.00000   0.00000   0.66317
  50        5XX         0.01274   0.00000   0.00000   0.00000   0.03492
  51        5YY         0.00728   0.00000   0.00000   0.00000   0.00592
  52        5ZZ         0.03094   0.00000   0.00000   0.00000   0.00624
  53        5XY         0.00000   0.00000   0.00000   0.00000   0.00000
  54        5XZ         0.00000   0.00000   0.00000   0.00000   0.00000
  55        5YZ         0.00000   0.00000   0.00000   0.00000   0.00000
  56 6   H  1S         -0.00167  -0.00004  -0.00378  -0.00000   0.00000
  57        2S         -0.00693  -0.00045  -0.00689  -0.00000   0.00019
  58 7   H  1S          0.00000   0.00011   0.00014   0.00000   0.00000
  59        2S         -0.00029   0.00133   0.00099   0.00000   0.00001
  60 8   C  1S          0.00000  -0.00000   0.00000  -0.00000  -0.00000
  61        2S          0.00000   0.00004  -0.00000   0.00000   0.00000
  62        2PX        -0.00000   0.00019  -0.00000   0.00000   0.00000
  63        2PY         0.00000   0.00000   0.00000  -0.00000   0.00000
  64        2PZ         0.00000   0.00000  -0.00000   0.00003   0.00000
  65        3S         -0.00036   0.00128   0.00003   0.00000   0.00001
  66        3PX        -0.00055   0.00281   0.00005   0.00000   0.00001
  67        3PY        -0.00000   0.00015   0.00004  -0.00000   0.00000
  68        3PZ        -0.00000   0.00000  -0.00000   0.00099   0.00000
  69 9   H  1S         -0.00172  -0.00240  -0.00083  -0.00297  -0.00003
  70        2S         -0.00359  -0.00653  -0.00258  -0.01457  -0.00106
  71 10  H  1S         -0.00172  -0.00242  -0.00083  -0.00293  -0.00003
  72        2S         -0.00362  -0.00658  -0.00260  -0.01435  -0.00106
  73 11  H  1S          0.00000   0.00000   0.00000  -0.00000   0.00000
  74        2S          0.00001   0.00002   0.00001  -0.00000  -0.00000
  75 12  H  1S         -0.00000  -0.00000   0.00000  -0.00000   0.00000
  76        2S          0.00000  -0.00010   0.00001  -0.00000  -0.00000
                          51        52        53        54        55
  51        5YY         0.03784
  52        5ZZ         0.00608   0.02262
  53        5XY         0.00000   0.00000   0.01036
  54        5XZ         0.00000   0.00000   0.00000   0.00137
  55        5YZ         0.00000   0.00000   0.00000   0.00000   0.00292
  56 6   H  1S         -0.00001  -0.00000   0.00001  -0.00000  -0.00000
  57        2S         -0.00045  -0.00008   0.00007  -0.00000  -0.00000
  58 7   H  1S          0.00000  -0.00000  -0.00000   0.00000   0.00000
  59        2S          0.00001  -0.00000  -0.00000   0.00000  -0.00000
  60 8   C  1S         -0.00000  -0.00000   0.00000   0.00000  -0.00000
  61        2S          0.00000   0.00000  -0.00000  -0.00000   0.00000
  62        2PX         0.00000  -0.00000  -0.00000  -0.00000  -0.00000
  63        2PY        -0.00000  -0.00000   0.00000  -0.00000  -0.00000
  64        2PZ         0.00000   0.00000  -0.00000  -0.00000  -0.00000
  65        3S          0.00000  -0.00000   0.00000  -0.00000  -0.00000
  66        3PX         0.00000  -0.00000   0.00000  -0.00000  -0.00000
  67        3PY         0.00000  -0.00000   0.00000  -0.00000  -0.00000
  68        3PZ         0.00000  -0.00000  -0.00000  -0.00000  -0.00000
  69 9   H  1S          0.00001  -0.00000  -0.00000   0.00002   0.00001
  70        2S          0.00036  -0.00001  -0.00025   0.00014   0.00015
  71 10  H  1S          0.00001  -0.00000  -0.00000   0.00002   0.00001
  72        2S          0.00036  -0.00001  -0.00024   0.00014   0.00015
  73 11  H  1S          0.00000  -0.00000   0.00000  -0.00000  -0.00000
  74        2S         -0.00000  -0.00000   0.00000  -0.00000  -0.00000
  75 12  H  1S         -0.00000   0.00000   0.00000   0.00000  -0.00000
  76        2S         -0.00000   0.00000   0.00000   0.00000  -0.00000
                          56        57        58        59        60
  56 6   H  1S          0.17759
  57        2S          0.07120   0.07524
  58 7   H  1S         -0.00000  -0.00014   0.17726
  59        2S         -0.00011  -0.00021   0.07469   0.08030
  60 8   C  1S          0.00000   0.00000   0.00000  -0.00000   2.03487
  61        2S         -0.00000  -0.00000  -0.00000  -0.00001   0.01874
  62        2PX        -0.00000  -0.00000  -0.00000  -0.00004   0.00000
  63        2PY        -0.00000  -0.00000  -0.00000  -0.00001   0.00000
  64        2PZ        -0.00000  -0.00000  -0.00000  -0.00000   0.00000
  65        3S         -0.00000  -0.00001  -0.00005   0.00042  -0.06565
  66        3PX        -0.00000  -0.00002   0.00004   0.00032   0.00000
  67        3PY        -0.00000  -0.00001  -0.00005   0.00063   0.00000
  68        3PZ        -0.00000  -0.00000  -0.00000  -0.00000   0.00000
  69 9   H  1S         -0.00000  -0.00000  -0.00000  -0.00000   0.00000
  70        2S         -0.00000  -0.00003  -0.00000  -0.00004   0.00000
  71 10  H  1S         -0.00000  -0.00000  -0.00000  -0.00000   0.00000
  72        2S         -0.00000  -0.00003  -0.00000  -0.00004   0.00000
  73 11  H  1S          0.00000   0.00000   0.00000  -0.00000  -0.00110
  74        2S          0.00000   0.00000   0.00000  -0.00001   0.00028
  75 12  H  1S         -0.00000  -0.00000  -0.00000   0.00006  -0.00110
  76        2S         -0.00000  -0.00000   0.00008   0.00073   0.00030
                          61        62        63        64        65
  61        2S          0.11754
  62        2PX         0.00000   0.31138
  63        2PY         0.00000   0.00000   0.28200
  64        2PZ         0.00000   0.00000   0.00000   0.22470
  65        3S          0.16419   0.00000   0.00000   0.00000   0.63598
  66        3PX         0.00000   0.07931   0.00000   0.00000   0.00000
  67        3PY         0.00000   0.00000   0.13355   0.00000   0.00000
  68        3PZ         0.00000   0.00000   0.00000   0.14195   0.00000
  69 9   H  1S         -0.00000  -0.00000  -0.00000  -0.00000  -0.00011
  70        2S         -0.00001  -0.00006   0.00000  -0.00020  -0.00063
  71 10  H  1S         -0.00000  -0.00000  -0.00000  -0.00000  -0.00011
  72        2S         -0.00001  -0.00006   0.00001  -0.00020  -0.00064
  73 11  H  1S          0.01070   0.01075   0.04684   0.00000   0.06366
  74        2S          0.00725   0.00842   0.03232   0.00000   0.05740
  75 12  H  1S          0.01084   0.02221   0.03516   0.00000   0.06442
  76        2S          0.00750   0.01662   0.02353   0.00000   0.05945
                          66        67        68        69        70
  66        3PX         0.07902
  67        3PY         0.00000   0.23919
  68        3PZ         0.00000   0.00000   0.32365
  69 9   H  1S         -0.00013   0.00003  -0.00034   0.17342
  70        2S         -0.00053   0.00065  -0.00254   0.08713   0.12476
  71 10  H  1S         -0.00014   0.00003  -0.00034  -0.00015  -0.00431
  72        2S         -0.00054   0.00066  -0.00251  -0.00430  -0.01395
  73 11  H  1S          0.00867   0.07349   0.00000  -0.00000   0.00003
  74        2S          0.00894   0.07362   0.00000   0.00000   0.00036
  75 12  H  1S          0.02384   0.05844   0.00000   0.00000  -0.00000
  76        2S          0.02375   0.05777   0.00000   0.00000  -0.00002
                          71        72        73        74        75
  71 10  H  1S          0.17343
  72        2S          0.08708   0.12454
  73 11  H  1S         -0.00000   0.00003   0.17941
  74        2S          0.00000   0.00037   0.08750   0.11179
  75 12  H  1S          0.00000  -0.00000  -0.00014  -0.00402   0.17908
  76        2S          0.00000  -0.00002  -0.00392  -0.01201   0.08645
                          76
  76        2S          0.10945
     Gross orbital populations:
                           1
   1 1   C  1S          1.98832
   2        2S          0.39261
   3        2PX         0.62625
   4        2PY         0.53939
   5        2PZ         0.40536
   6        3S          0.98223
   7        3PX         0.38299
   8        3PY         0.52430
   9        3PZ         0.59912
  10 2   C  1S          1.98820
  11        2S          0.39065
  12        2PX         0.60323
  13        2PY         0.56525
  14        2PZ         0.43223
  15        3S          0.90469
  16        3PX         0.28807
  17        3PY         0.42342
  18        3PZ         0.61974
  19 3   C  1S          1.98846
  20        2S          0.39729
  21        2PX         0.63533
  22        2PY         0.55786
  23        2PZ         0.40591
  24        3S          0.84992
  25        3PX         0.34005
  26        3PY         0.32084
  27        3PZ         0.57255
  28 4   C  1S          1.98938
  29        2S          0.34590
  30        2PX         0.48128
  31        2PY         0.55412
  32        2PZ         0.55842
  33        3S          1.19202
  34        3PX         0.41302
  35        3PY         0.46826
  36        3PZ         0.62584
  37 5   S  1S          1.99464
  38        2S          1.87401
  39        2PX         1.96197
  40        2PY         1.95842
  41        2PZ         1.97009
  42        3S          1.02616
  43        3PX         0.78016
  44        3PY         0.67602
  45        3PZ         0.98466
  46        4S          0.80880
  47        4PX         0.36307
  48        4PY         0.19303
  49        4PZ         0.93105
  50        5XX         0.04593
  51        5YY         0.06181
  52        5ZZ         0.00718
  53        5XY         0.03132
  54        5XZ         0.00505
  55        5YZ         0.00992
  56 6   H  1S          0.45949
  57        2S          0.27088
  58 7   H  1S          0.46106
  59        2S          0.29362
  60 8   C  1S          1.98703
  61        2S          0.38907
  62        2PX         0.60540
  63        2PY         0.54954
  64        2PZ         0.42522
  65        3S          0.96102
  66        3PX         0.29115
  67        3PY         0.57061
  68        3PZ         0.63592
  69 9   H  1S          0.45031
  70        2S          0.29022
  71 10  H  1S          0.45033
  72        2S          0.29024
  73 11  H  1S          0.46423
  74        2S          0.32898
  75 12  H  1S          0.46349
  76        2S          0.32640
          Condensed to atoms (all electrons):
               1          2          3          4          5          6
     1  C    5.513731   0.497023  -0.130298  -0.020238   0.215390   0.380778
     2  C    0.497023   5.309503   0.333874  -0.105149  -0.131047  -0.023504
     3  C   -0.130298   0.333874   5.390291   0.224306  -0.067920   0.001710
     4  C   -0.020238  -0.105149   0.224306   5.614995   0.215553   0.002188
     5  S    0.215390  -0.131047  -0.067920   0.215553  15.558475  -0.025481
     6  H    0.380778  -0.023504   0.001710   0.002188  -0.025481   0.395233
     7  H   -0.021242   0.392162  -0.029211   0.001985   0.002494  -0.000467
     8  C    0.002579  -0.065845   0.537993  -0.054836   0.005017  -0.000034
     9  H    0.001407   0.003509  -0.040458   0.374515  -0.044642  -0.000028
    10  H    0.001407   0.003499  -0.040320   0.374555  -0.044469  -0.000028
    11  H   -0.000099   0.002118  -0.055156  -0.001831   0.000029   0.000000
    12  H    0.000125  -0.000680  -0.056593   0.002196  -0.000095  -0.000001
               7          8          9         10         11         12
     1  C   -0.021242   0.002579   0.001407   0.001407  -0.000099   0.000125
     2  C    0.392162  -0.065845   0.003509   0.003499   0.002118  -0.000680
     3  C   -0.029211   0.537993  -0.040458  -0.040320  -0.055156  -0.056593
     4  C    0.001985  -0.054836   0.374515   0.374555  -0.001831   0.002196
     5  S    0.002494   0.005017  -0.044642  -0.044469   0.000029  -0.000095
     6  H   -0.000467  -0.000034  -0.000028  -0.000028   0.000000  -0.000001
     7  H    0.406939   0.001233  -0.000036  -0.000036  -0.000007   0.000865
     8  C    0.001233   5.192529  -0.003858  -0.003837   0.401262   0.402754
     9  H   -0.000036  -0.003858   0.472449  -0.022710   0.000394  -0.000017
    10  H   -0.000036  -0.003837  -0.022710   0.472132   0.000401  -0.000016
    11  H   -0.000007   0.401262   0.000394   0.000401   0.466194  -0.020089
    12  H    0.000865   0.402754  -0.000017  -0.000016  -0.020089   0.461440
 Mulliken charges:
               1
     1  C   -0.440561
     2  C   -0.215464
     3  C   -0.068220
     4  C   -0.628239
     5  S    0.316696
     6  H    0.269632
     7  H    0.245322
     8  C   -0.414957
     9  H    0.259475
    10  H    0.259422
    11  H    0.206785
    12  H    0.210111
 Sum of Mulliken charges =  -0.00000
 Mulliken charges with hydrogens summed into heavy atoms:
               1
     1  C   -0.170929
     2  C    0.029857
     3  C   -0.068220
     4  C   -0.109343
     5  S    0.316696
     8  C    0.001938
 Electronic spatial extent (au):  <R**2>=            651.0973
 Charge=              0.0000 electrons
 Dipole moment (field-independent basis, Debye):
    X=              0.9157    Y=              0.2576    Z=              0.0031  Tot=              0.9513
 Quadrupole moment (field-independent basis, Debye-Ang):
   XX=            -44.0151   YY=            -38.1028   ZZ=            -47.9733
   XY=             -2.3637   XZ=             -0.0016   YZ=              0.0002
 Traceless Quadrupole moment (field-independent basis, Debye-Ang):
   XX=             -0.6514   YY=              5.2609   ZZ=             -4.6095
   XY=             -2.3637   XZ=             -0.0016   YZ=              0.0002
 Octapole moment (field-independent basis, Debye-Ang**2):
  XXX=              5.7332  YYY=              1.2808  ZZZ=              0.0185  XYY=             -0.7954
  XXY=              7.6738  XXZ=             -0.0207  XZZ=             -1.5196  YZZ=             -3.5111
  YYZ=             -0.0014  XYZ=              0.0132
 Hexadecapole moment (field-independent basis, Debye-Ang**3):
 XXXX=           -559.3493 YYYY=           -242.0380 ZZZZ=            -61.2190 XXXY=            -12.1747
 XXXZ=             -0.0269 YYYX=             -2.4598 YYYZ=              0.0387 ZZZX=              0.0028
 ZZZY=             -0.0258 XXYY=           -123.5719 XXZZ=           -121.6938 YYZZ=            -55.5510
 XXYZ=              0.0105 YYXZ=             -0.0021 ZZXY=             -1.1334
 N-N= 2.709990616757D+02 E-N=-1.926972446245D+03  KE= 5.839341113155D+02
 Orbital energies and kinetic energies (alpha):
                                 1                 2
   1         O               -91.420968        119.678188
   2         O               -11.215064         15.875504
   3         O               -11.211474         15.881766
   4         O               -11.201507         15.876009
   5         O               -11.185595         15.875848
   6         O               -11.169131         15.871593
   7         O                -8.935995         18.456163
   8         O                -6.615475         17.329262
   9         O                -6.614105         17.342965
  10         O                -6.611285         17.383171
  11         O                -1.172478          1.537065
  12         O                -1.041604          1.664178
  13         O                -0.996190          1.628399
  14         O                -0.890135          1.688249
  15         O                -0.779585          1.447180
  16         O                -0.726630          1.327942
  17         O                -0.674973          1.154533
  18         O                -0.617286          0.932621
  19         O                -0.596038          1.163572
  20         O                -0.570512          1.360063
  21         O                -0.530083          1.534267
  22         O                -0.495480          1.320156
  23         O                -0.460412          1.073931
  24         O                -0.455010          1.837229
  25         O                -0.396676          1.302415
  26         O                -0.277174          1.424790
  27         V                 0.116587          1.193061
  28         V                 0.197729          1.471115
  29         V                 0.239174          1.183206
  30         V                 0.255358          1.337281
  31         V                 0.284977          1.020812
  32         V                 0.302924          1.154995
  33         V                 0.311344          1.112808
  34         V                 0.343817          1.115672
  35         V                 0.347067          1.066385
  36         V                 0.373065          1.181804
  37         V                 0.435633          1.697731
  38         V                 0.532904          1.839964
  39         V                 0.575885          1.442100
  40         V                 0.619093          1.720199
  41         V                 0.653539          2.041100
  42         V                 0.737001          2.992550
  43         V                 0.742760          3.242027
  44         V                 0.789610          3.495190
  45         V                 0.836550          2.271548
  46         V                 0.892598          2.171070
  47         V                 0.900432          2.284340
  48         V                 0.959155          2.746483
  49         V                 0.970956          2.558317
  50         V                 1.009105          2.656403
  51         V                 1.016334          2.688971
  52         V                 1.072696          2.636720
  53         V                 1.096865          2.395645
  54         V                 1.103226          2.690448
  55         V                 1.126788          2.783216
  56         V                 1.162573          2.511584
  57         V                 1.226127          2.978458
  58         V                 1.251408          2.945666
  59         V                 1.291871          3.252816
  60         V                 1.294389          3.034703
  61         V                 1.302314          2.970069
  62         V                 1.331283          2.850284
  63         V                 1.369576          3.030222
  64         V                 1.382752          3.210626
  65         V                 1.403450          2.452175
  66         V                 1.411061          3.099454
  67         V                 1.459162          3.120650
  68         V                 1.592987          2.826891
  69         V                 1.621067          2.886276
  70         V                 1.663589          2.964365
  71         V                 1.791504          3.039163
  72         V                 1.915830          3.277870
  73         V                 2.010674          3.355500
  74         V                 2.278741          3.440129
  75         V                 2.408645          3.502528
  76         V                 3.833931         11.930615
 Total kinetic energy from orbitals= 5.839341113155D+02
 1\1\GINC-IISERK51\SP\RHF\3-21G*\C5H6S1\GAUSSIAN\14-Jun-2025\0\\# hf/3-
 21g* pop=full geom=connectivity\\methyl_thiophene_isomer sp with HF3-2
 1G*\\0,1\C,0,-0.945947,1.17147,-0.000167\C,0,0.398426,1.27014,0.001053
 \C,0,1.094341,-0.017398,0.000493\C,0,0.121519,-1.150986,0.001689\S,0,-
 1.520882,-0.423161,-0.000887\H,0,-1.650006,2.005559,-0.000413\H,0,0.96
 8675,2.203814,0.001997\C,0,2.421086,-0.170553,-0.001378\H,0,0.237377,-
 1.788606,0.909834\H,0,0.238896,-1.792786,-0.90324\H,0,2.895932,-1.1594
 88,-0.002566\H,0,3.106694,0.686042,-0.001566\\Version=EM64L-G16RevB.01
 \State=1-A\HF=-587.3809698\RMSD=5.807e-09\Dipole=0.360277,0.101351,0.0
 012239\Quadrupole=-0.4842859,3.9113553,-3.4270694,-1.7573667,-0.001217
 5,0.0001369\PG=C01 [X(C5H6S1)]\\@


 ... IT IS NO ONE DREAME THAT
     CAN PLEASE THESE ALL ...

                -- BEN JONSON
 Job cpu time:       0 days  0 hours  0 minutes  0.9 seconds.
 Elapsed time:       0 days  0 hours  0 minutes  0.9 seconds.
 File lengths (MBytes):  RWF=      6 Int=      0 D2E=      0 Chk=      1 Scr=      1
 Normal termination of Gaussian 16 at Sat Jun 14 14:54:38 2025.
