 Entering Gaussian System, Link 0=g16
 Input=/home/gaussian/Documents/Summer_Internship/Aromaticity/hetrocyclic/thiphene/meth_thiophene_sp.com
 Output=/home/gaussian/Documents/Summer_Internship/Aromaticity/hetrocyclic/thiphene/meth_thiophene_sp.log
 Initial command:
 /usr/local/g16/l1.exe "/home/gaussian/tmp/Gau-47108.inp" -scrdir="/home/gaussian/tmp/"
 Entering Link 1 = /usr/local/g16/l1.exe PID=     47111.
  
 Copyright (c) 1988-2017, Gaussian, Inc.  All Rights Reserved.
  
 This is part of the Gaussian(R) 16 program.  It is based on
 the Gaussian(R) 09 system (copyright 2009, Gaussian, Inc.),
 the Gaussian(R) 03 system (copyright 2003, Gaussian, Inc.),
 the Gaussian(R) 98 system (copyright 1998, Gaussian, Inc.),
 the Gaussian(R) 94 system (copyright 1995, Gaussian, Inc.),
 the Gaussian 92(TM) system (copyright 1992, Gaussian, Inc.),
 the Gaussian 90(TM) system (copyright 1990, Gaussian, Inc.),
 the Gaussian 88(TM) system (copyright 1988, Gaussian, Inc.),
 the Gaussian 86(TM) system (copyright 1986, Carnegie Mellon
 University), and the Gaussian 82(TM) system (copyright 1983,
 Carnegie Mellon University). Gaussian is a federally registered
 trademark of Gaussian, Inc.
  
 This software contains proprietary and confidential information,
 including trade secrets, belonging to Gaussian, Inc.
  
 This software is provided under written license and may be
 used, copied, transmitted, or stored only in accord with that
 written license.
  
 The following legend is applicable only to US Government
 contracts under FAR:
  
                    RESTRICTED RIGHTS LEGEND
  
 Use, reproduction and disclosure by the US Government is
 subject to restrictions as set forth in subparagraphs (a)
 and (c) of the Commercial Computer Software - Restricted
 Rights clause in FAR 52.227-19.
  
 Gaussian, Inc.
 340 Quinnipiac St., Bldg. 40, Wallingford CT 06492
  
  
 ---------------------------------------------------------------
 Warning -- This program may not be used in any manner that
 competes with the business of Gaussian, Inc. or will provide
 assistance to any competitor of Gaussian, Inc.  The licensee
 of this program is prohibited from giving any competitor of
 Gaussian, Inc. access to this program.  By using this program,
 the user acknowledges that Gaussian, Inc. is engaged in the
 business of creating and licensing software in the field of
 computational chemistry and represents and warrants to the
 licensee that it is not a competitor of Gaussian, Inc. and that
 it will not use this program in any manner prohibited above.
 ---------------------------------------------------------------
  

 Cite this work as:
 Gaussian 16, Revision B.01,
 M. J. Frisch, G. W. Trucks, H. B. Schlegel, G. E. Scuseria, 
 M. A. Robb, J. R. Cheeseman, G. Scalmani, V. Barone, 
 G. A. Petersson, H. Nakatsuji, X. Li, M. Caricato, A. V. Marenich, 
 J. Bloino, B. G. Janesko, R. Gomperts, B. Mennucci, H. P. Hratchian, 
 J. V. Ortiz, A. F. Izmaylov, J. L. Sonnenberg, D. Williams-Young, 
 F. Ding, F. Lipparini, F. Egidi, J. Goings, B. Peng, A. Petrone, 
 T. Henderson, D. Ranasinghe, V. G. Zakrzewski, J. Gao, N. Rega, 
 G. Zheng, W. Liang, M. Hada, M. Ehara, K. Toyota, R. Fukuda, 
 J. Hasegawa, M. Ishida, T. Nakajima, Y. Honda, O. Kitao, H. Nakai, 
 T. Vreven, K. Throssell, J. A. Montgomery, Jr., J. E. Peralta, 
 F. Ogliaro, M. J. Bearpark, J. J. Heyd, E. N. Brothers, K. N. Kudin, 
 V. N. Staroverov, T. A. Keith, R. Kobayashi, J. Normand, 
 K. Raghavachari, A. P. Rendell, J. C. Burant, S. S. Iyengar, 
 J. Tomasi, M. Cossi, J. M. Millam, M. Klene, C. Adamo, R. Cammi, 
 J. W. Ochterski, R. L. Martin, K. Morokuma, O. Farkas, 
 J. B. Foresman, and D. J. Fox, Gaussian, Inc., Wallingford CT, 2016.
 
 ******************************************
 Gaussian 16:  EM64L-G16RevB.01 20-Dec-2017
                14-Jun-2025 
 ******************************************
 %chk=meth_thiophene_sp.chk
 --------------------------------------
 # hf/3-21g* pop=full geom=connectivity
 --------------------------------------
 1/38=1,57=2,172=1/1;
 2/12=2,17=6,18=5,40=1/2;
 3/5=5,7=1,11=9,25=1,30=1/1,2,3;
 4//1;
 5/5=2,38=5/2;
 6/7=3,28=1/1;
 99/5=1,9=1/99;
 ---------------------------------
 methyl_thiophene sp with HF3-21G*
 ---------------------------------
 Symbolic Z-matrix:
 Charge =  0 Multiplicity = 1
 C                     1.04761   1.11875   0.00001 
 C                    -0.32198   1.24571  -0.00001 
 C                    -0.97329  -0.0354   -0.00004 
 C                    -0.05092  -1.06241  -0.00002 
 S                     1.51716  -0.48667   0.00001 
 H                     1.76094   1.94072   0.00004 
 H                    -0.87237   2.18825  -0.00004 
 H                    -0.28998  -2.12415  -0.00003 
 C                    -2.43415  -0.19004   0.00002 
 H                    -2.87619   0.29573   0.9063 
 H                    -2.87629   0.29582  -0.90614 
 H                    -2.72427  -1.26941  -0.00002 
 
                          Input orientation:                          
 ---------------------------------------------------------------------
 Center     Atomic      Atomic             Coordinates (Angstroms)
 Number     Number       Type             X           Y           Z
 ---------------------------------------------------------------------
      1          6           0        1.047612    1.118753    0.000006
      2          6           0       -0.321980    1.245711   -0.000014
      3          6           0       -0.973288   -0.035401   -0.000035
      4          6           0       -0.050921   -1.062406   -0.000019
      5         16           0        1.517158   -0.486667    0.000009
      6          1           0        1.760943    1.940722    0.000039
      7          1           0       -0.872369    2.188251   -0.000043
      8          1           0       -0.289977   -2.124154   -0.000032
      9          6           0       -2.434149   -0.190037    0.000020
     10          1           0       -2.876192    0.295725    0.906299
     11          1           0       -2.876293    0.295821   -0.906143
     12          1           0       -2.724274   -1.269408   -0.000015
 ---------------------------------------------------------------------
                    Distance matrix (angstroms):
                    1          2          3          4          5
     1  C    0.000000
     2  C    1.375464   0.000000
     3  C    2.327253   1.437167   0.000000
     4  C    2.442177   2.323979   1.380399   0.000000
     5  S    1.672677   2.526571   2.531000   1.670433   0.000000
     6  H    1.088335   2.195816   3.373586   3.507368   2.439600
     7  H    2.197761   1.091471   2.225941   3.352842   3.586785
     8  H    3.507932   3.370017   2.197681   1.088327   2.438668
     9  C    3.719622   2.553944   1.469023   2.537874   3.962426
    10  H    4.110350   2.871911   2.133572   3.263141   4.553573
    11  H    4.110396   2.871912   2.133581   3.263214   4.553659
    12  H    4.464352   3.478051   2.142131   2.681355   4.313053
                    6          7          8          9         10
     6  H    0.000000
     7  H    2.644920   0.000000
     8  H    4.552965   4.351553   0.000000
     9  C    4.705203   2.845244   2.887608   0.000000
    10  H    5.003033   2.901451   3.655921   1.119245   0.000000
    11  H    5.003081   2.901382   3.656001   1.119232   1.812442
    12  H    5.515624   3.922366   2.579999   1.117683   1.814973
                   11         12
    11  H    0.000000
    12  H    1.814971   0.000000
 Stoichiometry    C5H6S
 Framework group  C1[X(C5H6S)]
 Deg. of freedom    30
 Full point group                 C1      NOp   1
 Largest Abelian subgroup         C1      NOp   1
 Largest concise Abelian subgroup C1      NOp   1
                         Standard orientation:                         
 ---------------------------------------------------------------------
 Center     Atomic      Atomic             Coordinates (Angstroms)
 Number     Number       Type             X           Y           Z
 ---------------------------------------------------------------------
      1          6           0        1.047612    1.118753    0.000006
      2          6           0       -0.321980    1.245711   -0.000014
      3          6           0       -0.973288   -0.035401   -0.000035
      4          6           0       -0.050921   -1.062406   -0.000019
      5         16           0        1.517158   -0.486667    0.000009
      6          1           0        1.760943    1.940722    0.000039
      7          1           0       -0.872369    2.188251   -0.000043
      8          1           0       -0.289978   -2.124154   -0.000032
      9          6           0       -2.434149   -0.190037    0.000020
     10          1           0       -2.876192    0.295725    0.906299
     11          1           0       -2.876293    0.295821   -0.906143
     12          1           0       -2.724274   -1.269408   -0.000015
 ---------------------------------------------------------------------
 Rotational constants (GHZ):           7.0480223           2.5296175           1.8844826
 Standard basis: 3-21G* (6D, 7F)
 There are    76 symmetry adapted cartesian basis functions of A   symmetry.
 There are    76 symmetry adapted basis functions of A   symmetry.
    76 basis functions,   126 primitive gaussians,    76 cartesian basis functions
    26 alpha electrons       26 beta electrons
       nuclear repulsion energy       273.0462068290 Hartrees.
 NAtoms=   12 NActive=   12 NUniq=   12 SFac= 1.00D+00 NAtFMM=   60 NAOKFM=F Big=F
 Integral buffers will be    131072 words long.
 Raffenetti 1 integral format.
 Two-electron integral symmetry is turned on.
 One-electron integrals computed using PRISM.
 NBasis=    76 RedAO= T EigKep=  3.86D-03  NBF=    76
 NBsUse=    76 1.00D-06 EigRej= -1.00D+00 NBFU=    76
 ExpMin= 1.42D-01 ExpMax= 1.21D+03 ExpMxC= 1.21D+03 IAcc=3 IRadAn=         5 AccDes= 0.00D+00
 Harris functional with IExCor=  205 and IRadAn=       5 diagonalized for initial guess.
 HarFok:  IExCor=  205 AccDes= 0.00D+00 IRadAn=         5 IDoV= 1 UseB2=F ITyADJ=14
 ICtDFT=  3500011 ScaDFX=  1.000000  1.000000  1.000000  1.000000
 FoFCou: FMM=F IPFlag=           0 FMFlag=      100000 FMFlg1=           0
         NFxFlg=           0 DoJE=T BraDBF=F KetDBF=T FulRan=T
         wScrn=  0.000000 ICntrl=       500 IOpCl=  0 I1Cent=   200000004 NGrid=           0
         NMat0=    1 NMatS0=      1 NMatT0=    0 NMatD0=    1 NMtDS0=    0 NMtDT0=    0
 Petite list used in FoFCou.
 Keep R1 ints in memory in canonical form, NReq=5131625.
 Requested convergence on RMS density matrix=1.00D-08 within 128 cycles.
 Requested convergence on MAX density matrix=1.00D-06.
 Requested convergence on             energy=1.00D-06.
 No special actions if energy rises.
 SCF Done:  E(RHF) =  -587.405763216     A.U. after   14 cycles
            NFock= 14  Conv=0.40D-08     -V/T= 2.0060

 **********************************************************************

            Population analysis using the SCF Density.

 **********************************************************************

 Orbital symmetries:
       Occupied  (A) (A) (A) (A) (A) (A) (A) (A) (A) (A) (A) (A)
                 (A) (A) (A) (A) (A) (A) (A) (A) (A) (A) (A) (A)
                 (A) (A)
       Virtual   (A) (A) (A) (A) (A) (A) (A) (A) (A) (A) (A) (A)
                 (A) (A) (A) (A) (A) (A) (A) (A) (A) (A) (A) (A)
                 (A) (A) (A) (A) (A) (A) (A) (A) (A) (A) (A) (A)
                 (A) (A) (A) (A) (A) (A) (A) (A) (A) (A) (A) (A)
                 (A) (A)
 The electronic state is 1-A.
 Alpha  occ. eigenvalues --  -91.44408 -11.20079 -11.19325 -11.18740 -11.17973
 Alpha  occ. eigenvalues --  -11.17481  -8.95851  -6.63777  -6.63681  -6.63440
 Alpha  occ. eigenvalues --   -1.18710  -1.03676  -0.98337  -0.90917  -0.76397
 Alpha  occ. eigenvalues --   -0.73269  -0.66992  -0.57936  -0.57734  -0.56639
 Alpha  occ. eigenvalues --   -0.52986  -0.51031  -0.50380  -0.47055  -0.33430
 Alpha  occ. eigenvalues --   -0.31963
 Alpha virt. eigenvalues --    0.14066   0.21445   0.22458   0.26346   0.29184
 Alpha virt. eigenvalues --    0.30775   0.31567   0.34823   0.36664   0.36930
 Alpha virt. eigenvalues --    0.45516   0.49386   0.54104   0.61299   0.66453
 Alpha virt. eigenvalues --    0.71969   0.77423   0.78159   0.86164   0.88729
 Alpha virt. eigenvalues --    0.95202   0.95550   0.98258   1.01197   1.02093
 Alpha virt. eigenvalues --    1.06792   1.13057   1.13928   1.16262   1.19651
 Alpha virt. eigenvalues --    1.20613   1.24412   1.27391   1.29458   1.30993
 Alpha virt. eigenvalues --    1.32652   1.33562   1.37084   1.38051   1.43777
 Alpha virt. eigenvalues --    1.44474   1.57563   1.66222   1.70520   1.81389
 Alpha virt. eigenvalues --    1.88403   2.16087   2.23753   2.32001   3.82249
     Molecular Orbital Coefficients:
                           1         2         3         4         5
                           O         O         O         O         O
     Eigenvalues --   -91.44408 -11.20079 -11.19325 -11.18740 -11.17973
   1 1   C  1S          0.00010   0.98725  -0.00926   0.00405   0.00366
   2        2S         -0.00040   0.09991   0.00012   0.00018  -0.00299
   3        2PX        -0.00029  -0.00045   0.00003   0.00057   0.00136
   4        2PY         0.00040  -0.00232   0.00038  -0.00004   0.00026
   5        2PZ        -0.00000   0.00000  -0.00000   0.00000   0.00000
   6        3S          0.00201  -0.08029  -0.00762  -0.00544   0.03005
   7        3PX         0.00130   0.01244  -0.00170   0.00214  -0.01957
   8        3PY         0.00021   0.01358   0.00427   0.00287  -0.00406
   9        3PZ         0.00000   0.00000  -0.00000   0.00000  -0.00000
  10 2   C  1S         -0.00006  -0.00413  -0.00661  -0.02606   0.98680
  11        2S         -0.00044  -0.00372  -0.00151  -0.00558   0.09940
  12        2PX         0.00002  -0.00139   0.00036   0.00026   0.00108
  13        2PY         0.00030   0.00049   0.00100   0.00086  -0.00132
  14        2PZ        -0.00000  -0.00000   0.00000  -0.00000  -0.00000
  15        3S          0.00033   0.02685  -0.00120   0.02697  -0.08927
  16        3PX         0.00054   0.01421  -0.00253  -0.00267  -0.01306
  17        3PY        -0.00110  -0.00548  -0.00126  -0.01422   0.02148
  18        3PZ         0.00000   0.00000  -0.00000   0.00000   0.00000
  19 3   C  1S         -0.00005  -0.00433  -0.01390   0.98688   0.02518
  20        2S         -0.00036  -0.00089  -0.00447   0.10003  -0.00052
  21        2PX        -0.00040  -0.00102  -0.00148   0.00064  -0.00090
  22        2PY        -0.00017  -0.00072   0.00122  -0.00015  -0.00088
  23        2PZ         0.00000  -0.00000  -0.00000   0.00000   0.00000
  24        3S          0.00042  -0.00363   0.02670  -0.08948   0.02674
  25        3PX         0.00381   0.00635   0.01881  -0.00953   0.01862
  26        3PY         0.00010  -0.00084  -0.01303   0.00118   0.01448
  27        3PZ        -0.00000  -0.00000   0.00000  -0.00000   0.00000
  28 4   C  1S          0.00010   0.00953   0.98716   0.01331   0.00675
  29        2S         -0.00039   0.00209   0.10012  -0.00174  -0.00003
  30        2PX        -0.00046  -0.00018   0.00172   0.00089   0.00056
  31        2PY        -0.00004  -0.00030   0.00161  -0.00111  -0.00073
  32        2PZ        -0.00000  -0.00000  -0.00000   0.00000   0.00000
  33        3S          0.00100  -0.01261  -0.08481   0.02468  -0.00561
  34        3PX         0.00058  -0.00358  -0.00177  -0.01082  -0.00222
  35        3PY        -0.00193  -0.00344  -0.01996   0.01250  -0.00414
  36        3PZ         0.00000   0.00000   0.00000   0.00000   0.00000
  37 5   S  1S          0.98493   0.00005   0.00004   0.00001   0.00001
  38        2S          0.07383  -0.00129  -0.00128  -0.00032  -0.00040
  39        2PX         0.00010   0.00010   0.00008  -0.00018  -0.00006
  40        2PY        -0.00004  -0.00002  -0.00005  -0.00008   0.00029
  41        2PZ         0.00000   0.00000   0.00000   0.00000   0.00000
  42        3S         -0.09571   0.00091   0.00092  -0.00072  -0.00068
  43        3PX        -0.00083  -0.00109  -0.00229   0.00132   0.00052
  44        3PY         0.00035   0.00200  -0.00051   0.00050  -0.00216
  45        3PZ        -0.00000  -0.00000  -0.00000   0.00000  -0.00000
  46        4S         -0.01021   0.02971   0.02916   0.00496   0.00359
  47        4PX         0.00224  -0.01109  -0.01563  -0.00273  -0.00105
  48        4PY        -0.00115   0.01164   0.00215  -0.00046   0.00143
  49        4PZ         0.00000  -0.00000  -0.00000  -0.00000   0.00000
  50        5XX         0.03947  -0.00135  -0.00154  -0.00092  -0.00029
  51        5YY         0.03933  -0.00225  -0.00208  -0.00008  -0.00124
  52        5ZZ         0.03984  -0.00297  -0.00294  -0.00115  -0.00132
  53        5XY        -0.00005  -0.00042  -0.00061  -0.00015   0.00064
  54        5XZ        -0.00000   0.00000   0.00000   0.00000   0.00000
  55        5YZ        -0.00000   0.00000  -0.00000   0.00000   0.00000
  56 6   H  1S         -0.00037  -0.00202   0.00013  -0.00026  -0.00023
  57        2S         -0.00042   0.00657   0.00052  -0.00012   0.00354
  58 7   H  1S          0.00014  -0.00052  -0.00001  -0.00052  -0.00243
  59        2S          0.00061   0.00227   0.00078   0.00142   0.00517
  60 8   H  1S         -0.00042   0.00007  -0.00195  -0.00074  -0.00041
  61        2S         -0.00063   0.00025   0.00641   0.00145  -0.00048
  62 9   C  1S         -0.00005  -0.00318  -0.00627  -0.01203  -0.01835
  63        2S         -0.00029  -0.00143  -0.00152  -0.00305  -0.00262
  64        2PX         0.00014   0.00015  -0.00031  -0.00089  -0.00025
  65        2PY        -0.00002  -0.00024   0.00014   0.00027  -0.00021
  66        2PZ         0.00000   0.00000  -0.00000   0.00000   0.00000
  67        3S          0.00270   0.00689   0.00627   0.01411   0.00800
  68        3PX         0.00118   0.00318   0.00279   0.00993   0.00402
  69        3PY         0.00029   0.00209   0.00285  -0.00136  -0.00146
  70        3PZ        -0.00000  -0.00000  -0.00000  -0.00000  -0.00000
  71 10  H  1S         -0.00012  -0.00049  -0.00028  -0.00107  -0.00020
  72        2S         -0.00006  -0.00031  -0.00032   0.00235   0.00024
  73 11  H  1S         -0.00012  -0.00049  -0.00028  -0.00107  -0.00020
  74        2S         -0.00006  -0.00031  -0.00032   0.00235   0.00024
  75 12  H  1S         -0.00008  -0.00005  -0.00004  -0.00082  -0.00045
  76        2S          0.00001   0.00044   0.00081  -0.00113  -0.00006
                           6         7         8         9        10
                           O         O         O         O         O
     Eigenvalues --   -11.17481  -8.95851  -6.63777  -6.63681  -6.63440
   1 1   C  1S          0.00293  -0.00023   0.00060  -0.00065   0.00000
   2        2S         -0.00066  -0.00011   0.00157  -0.00266   0.00000
   3        2PX         0.00035  -0.00013  -0.00073   0.00134   0.00000
   4        2PY         0.00016  -0.00007   0.00118  -0.00062   0.00000
   5        2PZ         0.00000  -0.00000  -0.00000   0.00000  -0.00061
   6        3S          0.00286   0.00139  -0.01734   0.01226  -0.00000
   7        3PX        -0.00314   0.00113   0.01377  -0.00847  -0.00000
   8        3PY        -0.00116   0.00094   0.01543  -0.01706  -0.00000
   9        3PZ        -0.00000   0.00000   0.00000  -0.00000   0.00258
  10 2   C  1S          0.01788  -0.00002  -0.00060   0.00030  -0.00000
  11        2S          0.00127  -0.00037  -0.00340   0.00168  -0.00000
  12        2PX         0.00072   0.00004  -0.00049  -0.00120  -0.00000
  13        2PY         0.00010   0.00028   0.00068  -0.00116   0.00000
  14        2PZ        -0.00000  -0.00000  -0.00000  -0.00000  -0.00017
  15        3S          0.00096   0.00051   0.03556  -0.00596   0.00000
  16        3PX        -0.00189   0.00055   0.01085  -0.00415   0.00000
  17        3PY        -0.00328  -0.00131  -0.02838   0.00845  -0.00000
  18        3PZ        -0.00000   0.00000   0.00000  -0.00000   0.00029
  19 3   C  1S          0.01207  -0.00002   0.00046   0.00029  -0.00000
  20        2S         -0.00072  -0.00030   0.00240   0.00153  -0.00000
  21        2PX         0.00151  -0.00032   0.00144   0.00103   0.00000
  22        2PY         0.00042  -0.00017   0.00038   0.00138   0.00000
  23        2PZ        -0.00000   0.00000   0.00000  -0.00000  -0.00027
  24        3S          0.01874   0.00052  -0.02846  -0.00773   0.00000
  25        3PX        -0.02335   0.00330  -0.03371  -0.02239  -0.00000
  26        3PY        -0.00396   0.00004  -0.01091   0.00154  -0.00000
  27        3PZ         0.00000  -0.00000  -0.00000   0.00000   0.00092
  28 4   C  1S          0.00645  -0.00023  -0.00056  -0.00073  -0.00000
  29        2S         -0.00016  -0.00009  -0.00146  -0.00292  -0.00000
  30        2PX         0.00062   0.00002   0.00126   0.00121   0.00000
  31        2PY        -0.00008   0.00013  -0.00010  -0.00056   0.00000
  32        2PZ        -0.00000  -0.00000   0.00000   0.00000  -0.00061
  33        3S          0.00392   0.00054   0.01578   0.01935   0.00000
  34        3PX         0.00079  -0.00005   0.00593   0.00809  -0.00000
  35        3PY         0.00442  -0.00205   0.02115   0.02195   0.00000
  36        3PZ        -0.00000   0.00000   0.00000   0.00000   0.00242
  37 5   S  1S          0.00000  -0.29732   0.00007  -0.00189  -0.00000
  38        2S         -0.00017   0.93659  -0.00029   0.00583   0.00000
  39        2PX        -0.00006  -0.00470   0.40389   0.88532  -0.00002
  40        2PY        -0.00000   0.00237   0.88505  -0.40411  -0.00000
  41        2PZ        -0.00000  -0.00000   0.00001   0.00002   0.97471
  42        3S         -0.00027   0.31070  -0.00011   0.00293  -0.00000
  43        3PX         0.00050  -0.00230   0.03670   0.07887  -0.00000
  44        3PY        -0.00004   0.00111   0.07960  -0.03571  -0.00000
  45        3PZ         0.00000  -0.00000   0.00000   0.00000   0.07985
  46        4S          0.00012  -0.01622  -0.00021  -0.01741  -0.00000
  47        4PX         0.00008   0.00214  -0.01002  -0.01368   0.00000
  48        4PY         0.00012  -0.00108  -0.02183   0.00574   0.00000
  49        4PZ        -0.00000   0.00000  -0.00000  -0.00000  -0.02520
  50        5XX        -0.00031  -0.08936  -0.00301  -0.00560  -0.00000
  51        5YY        -0.00036  -0.08939   0.00298  -0.00349   0.00000
  52        5ZZ        -0.00045  -0.08964  -0.00009  -0.00074  -0.00000
  53        5XY        -0.00005   0.00001  -0.00268   0.00115  -0.00000
  54        5XZ         0.00000   0.00000  -0.00000  -0.00000  -0.00004
  55        5YZ        -0.00000   0.00000  -0.00000   0.00000   0.00000
  56 6   H  1S          0.00007  -0.00031  -0.00193   0.00104  -0.00000
  57        2S          0.00129  -0.00044  -0.00348   0.00819   0.00000
  58 7   H  1S         -0.00010   0.00015   0.00164  -0.00093   0.00000
  59        2S          0.00105   0.00062   0.00915  -0.00343   0.00000
  60 8   H  1S          0.00042  -0.00034   0.00220   0.00128   0.00000
  61        2S          0.00100  -0.00059   0.00425   0.00920   0.00000
  62 9   C  1S          0.98738  -0.00004   0.00020   0.00019   0.00000
  63        2S          0.10218  -0.00017   0.00098   0.00083   0.00000
  64        2PX        -0.00008   0.00013  -0.00088  -0.00085  -0.00000
  65        2PY         0.00012  -0.00002  -0.00004   0.00024  -0.00000
  66        2PZ         0.00000   0.00000  -0.00000  -0.00000   0.00015
  67        3S         -0.08825   0.00217  -0.01639  -0.01290  -0.00000
  68        3PX        -0.00955   0.00090  -0.00692  -0.00521  -0.00000
  69        3PY        -0.00117   0.00029   0.00105  -0.00286   0.00000
  70        3PZ         0.00000  -0.00000   0.00000   0.00000  -0.00090
  71 10  H  1S          0.00078  -0.00010   0.00042   0.00059   0.00010
  72        2S          0.01355  -0.00005  -0.00012   0.00052   0.00030
  73 11  H  1S          0.00078  -0.00010   0.00042   0.00059  -0.00010
  74        2S          0.01355  -0.00005  -0.00012   0.00053  -0.00030
  75 12  H  1S          0.00069  -0.00002   0.00046   0.00001   0.00000
  76        2S          0.01348  -0.00004   0.00127  -0.00030   0.00000
                          11        12        13        14        15
                           O         O         O         O         O
     Eigenvalues --    -1.18710  -1.03676  -0.98337  -0.90917  -0.76397
   1 1   C  1S         -0.10105   0.07560  -0.10612  -0.06146  -0.10652
   2        2S          0.10517  -0.07612   0.11401   0.06425   0.10836
   3        2PX        -0.04308  -0.02169  -0.09704   0.08453   0.03517
   4        2PY        -0.05281   0.04457   0.05154  -0.04001   0.12341
   5        2PZ        -0.00000  -0.00000  -0.00000   0.00000   0.00000
   6        3S          0.23422  -0.21767   0.23969   0.19073   0.36225
   7        3PX        -0.01273   0.01156  -0.01155   0.03817   0.03035
   8        3PY        -0.05773   0.03838   0.01507  -0.02238   0.06698
   9        3PZ        -0.00000   0.00000   0.00000   0.00000   0.00000
  10 2   C  1S         -0.09399  -0.02338  -0.14139   0.06032   0.05476
  11        2S          0.10337   0.02553   0.14717  -0.06331  -0.05691
  12        2PX         0.03492  -0.07438   0.06418   0.02867   0.16045
  13        2PY        -0.05840  -0.03457   0.00205   0.04749   0.05619
  14        2PZ         0.00000  -0.00000   0.00000   0.00000   0.00000
  15        3S          0.15996   0.05637   0.36840  -0.15838  -0.17286
  16        3PX         0.01340   0.00281   0.02656   0.00210   0.06658
  17        3PY        -0.01336  -0.00345  -0.03435   0.02533   0.01930
  18        3PZ        -0.00000  -0.00000  -0.00000   0.00000   0.00000
  19 3   C  1S         -0.10285  -0.12825   0.00478   0.06015   0.01217
  20        2S          0.11257   0.13671  -0.00379  -0.06022  -0.01162
  21        2PX         0.05754  -0.06279  -0.00846  -0.16058   0.01260
  22        2PY         0.00127  -0.01008   0.11871   0.00316  -0.19949
  23        2PZ         0.00000   0.00000  -0.00000   0.00000  -0.00000
  24        3S          0.17504   0.29336  -0.02343  -0.18656  -0.04330
  25        3PX         0.00501   0.02371  -0.01233  -0.05401   0.00602
  26        3PY         0.00561   0.00419   0.01599   0.00599  -0.10382
  27        3PZ         0.00000   0.00000  -0.00000  -0.00000  -0.00000
  28 4   C  1S         -0.10346  -0.01956   0.12389   0.07922  -0.07547
  29        2S          0.10690   0.02438  -0.12854  -0.08292   0.07790
  30        2PX         0.01320  -0.09539  -0.03254   0.06639  -0.14401
  31        2PY         0.06668   0.02087  -0.00481  -0.04471  -0.05541
  32        2PZ         0.00000  -0.00000  -0.00000   0.00000  -0.00000
  33        3S          0.24698   0.00692  -0.33175  -0.20255   0.23608
  34        3PX         0.03665  -0.02622  -0.02673   0.00904  -0.06947
  35        3PY         0.05038  -0.01974  -0.01340  -0.01647  -0.03802
  36        3PZ         0.00000  -0.00000  -0.00000   0.00000  -0.00000
  37 5   S  1S          0.03580  -0.03231  -0.02646   0.02753  -0.02889
  38        2S         -0.19235   0.17763   0.14637  -0.15353   0.16452
  39        2PX         0.04881  -0.01561  -0.03734  -0.02119  -0.00175
  40        2PY        -0.02443   0.02866  -0.04315  -0.04236  -0.02943
  41        2PZ         0.00000  -0.00000  -0.00000  -0.00000  -0.00000
  42        3S          0.22088  -0.19698  -0.16273   0.17133  -0.18810
  43        3PX        -0.08963   0.02990   0.07181   0.03955   0.00652
  44        3PY         0.04512  -0.05368   0.08176   0.08295   0.05833
  45        3PZ        -0.00000   0.00000   0.00000   0.00000   0.00000
  46        4S          0.05226  -0.15000  -0.14614   0.18837  -0.26215
  47        4PX         0.03001   0.00134   0.00509  -0.00025   0.01095
  48        4PY        -0.01501   0.00077   0.00136   0.01091   0.01074
  49        4PZ         0.00000   0.00000   0.00000   0.00000   0.00000
  50        5XX         0.04025  -0.01798  -0.04453  -0.00431  -0.02628
  51        5YY         0.03696  -0.03974   0.00028   0.04536  -0.00137
  52        5ZZ         0.00486  -0.00344  -0.00397   0.00652  -0.00765
  53        5XY        -0.00271   0.00399  -0.02609  -0.00994  -0.00377
  54        5XZ         0.00000  -0.00000  -0.00000  -0.00000  -0.00000
  55        5YZ         0.00000  -0.00000  -0.00000   0.00000   0.00000
  56 6   H  1S          0.03143  -0.03719   0.05825   0.05252   0.14898
  57        2S          0.00647  -0.01468   0.01268   0.01642   0.07861
  58 7   H  1S          0.02806   0.01750   0.07753  -0.02967  -0.06229
  59        2S         -0.00035   0.00661   0.02942  -0.01047  -0.03316
  60 8   H  1S          0.03256   0.01252  -0.07293  -0.04305   0.10839
  61        2S          0.00852  -0.00020  -0.02178  -0.01371   0.06088
  62 9   C  1S         -0.03197  -0.13864   0.00830  -0.14512  -0.00413
  63        2S          0.03229   0.13354  -0.00738   0.13612   0.00437
  64        2PX         0.02726   0.05994  -0.00362  -0.02852  -0.00149
  65        2PY         0.00285   0.00628   0.01666   0.00124  -0.06530
  66        2PZ        -0.00000  -0.00000   0.00000  -0.00000   0.00000
  67        3S          0.06689   0.39111  -0.02778   0.46000   0.01532
  68        3PX        -0.00067   0.02236  -0.00513  -0.00435   0.00003
  69        3PY        -0.00144   0.00841   0.00873   0.00156  -0.03825
  70        3PZ        -0.00000  -0.00000   0.00000   0.00000   0.00000
  71 10  H  1S          0.01224   0.06355  -0.00061   0.08917  -0.01278
  72        2S         -0.00481  -0.00259   0.00118   0.02259  -0.00904
  73 11  H  1S          0.01224   0.06355  -0.00060   0.08918  -0.01279
  74        2S         -0.00481  -0.00259   0.00118   0.02259  -0.00904
  75 12  H  1S          0.01157   0.06382  -0.01058   0.08706   0.03925
  76        2S         -0.00238   0.00383  -0.00567   0.02096   0.02699
                          16        17        18        19        20
                           O         O         O         O         O
     Eigenvalues --    -0.73269  -0.66992  -0.57936  -0.57734  -0.56639
   1 1   C  1S         -0.02045   0.00130   0.00001  -0.02578   0.01720
   2        2S          0.01797  -0.00345  -0.00001   0.02644  -0.01912
   3        2PX         0.10297   0.23174  -0.00003   0.06435   0.15438
   4        2PY        -0.10696   0.07917  -0.00002   0.05997   0.19135
   5        2PZ         0.00000   0.00001   0.07037   0.00003   0.00001
   6        3S          0.08901   0.00469  -0.00003   0.07462  -0.05175
   7        3PX         0.05876   0.18024  -0.00003   0.07157   0.12708
   8        3PY        -0.07600   0.07905  -0.00002   0.06778   0.17932
   9        3PZ         0.00000   0.00001   0.06388   0.00003   0.00001
  10 2   C  1S          0.07930   0.00244  -0.00001   0.02442   0.01545
  11        2S         -0.08041  -0.00551   0.00001  -0.02330  -0.01901
  12        2PX        -0.01207  -0.20678   0.00001  -0.01368  -0.10544
  13        2PY        -0.17449   0.09149   0.00006  -0.17892   0.09970
  14        2PZ         0.00000  -0.00000   0.09067   0.00004  -0.00000
  15        3S         -0.28362   0.03773   0.00004  -0.09046  -0.01860
  16        3PX         0.02191  -0.10294  -0.00000   0.02908  -0.08026
  17        3PY        -0.09020   0.08136   0.00005  -0.16169   0.07593
  18        3PZ         0.00000  -0.00000   0.08370   0.00003   0.00000
  19 3   C  1S         -0.09397  -0.06020   0.00000  -0.00218  -0.00135
  20        2S          0.09749   0.05859  -0.00000   0.00042   0.00354
  21        2PX         0.04231  -0.14268  -0.00002   0.01939   0.15929
  22        2PY        -0.03554   0.02748  -0.00006   0.17611  -0.06969
  23        2PZ         0.00000   0.00000   0.16037   0.00006   0.00000
  24        3S          0.30938   0.25787  -0.00001   0.00623  -0.03522
  25        3PX         0.02416  -0.11651  -0.00002   0.01363   0.11757
  26        3PY         0.00191   0.01949  -0.00004   0.12370  -0.04830
  27        3PZ         0.00000   0.00000   0.12776   0.00005   0.00000
  28 4   C  1S          0.06008   0.00722   0.00001  -0.02282  -0.02244
  29        2S         -0.05801  -0.00543  -0.00001   0.01867   0.02399
  30        2PX        -0.11969  -0.05163  -0.00002   0.09131   0.06577
  31        2PY         0.18573  -0.09396   0.00002  -0.09605   0.27876
  32        2PZ        -0.00000  -0.00000   0.10478   0.00004   0.00000
  33        3S         -0.23283  -0.03577  -0.00004   0.11049   0.07342
  34        3PX        -0.07000  -0.03639  -0.00002   0.06701   0.07262
  35        3PY         0.12789  -0.08610   0.00002  -0.07926   0.25125
  36        3PZ        -0.00000  -0.00000   0.09931   0.00004   0.00001
  37 5   S  1S         -0.00146   0.01299   0.00000  -0.01310  -0.00170
  38        2S          0.00833  -0.07558  -0.00003   0.07628   0.01024
  39        2PX        -0.02714  -0.07536  -0.00001   0.04384   0.05163
  40        2PY        -0.09463  -0.00159  -0.00000   0.01647   0.06739
  41        2PZ        -0.00000  -0.00000  -0.05008  -0.00002  -0.00000
  42        3S         -0.00737   0.08141   0.00003  -0.08663  -0.01108
  43        3PX         0.05618   0.15417   0.00003  -0.09297  -0.10876
  44        3PY         0.19309   0.00480   0.00000  -0.03363  -0.14242
  45        3PZ         0.00000   0.00000   0.10420   0.00004   0.00000
  46        4S         -0.02782   0.17624   0.00005  -0.14909  -0.03052
  47        4PX         0.01571   0.04875   0.00002  -0.05023  -0.04120
  48        4PY         0.05258   0.00308  -0.00000  -0.00745  -0.04755
  49        4PZ         0.00000   0.00000   0.07126   0.00003   0.00000
  50        5XX        -0.02715  -0.02192  -0.00000   0.00566   0.04290
  51        5YY         0.02705   0.02011   0.00000  -0.00510  -0.03977
  52        5ZZ        -0.00293   0.01102   0.00000  -0.01029  -0.00218
  53        5XY        -0.03639   0.00900  -0.00001   0.01703   0.03184
  54        5XZ        -0.00000  -0.00000  -0.01547  -0.00001   0.00000
  55        5YZ        -0.00000   0.00000   0.00491   0.00000   0.00000
  56 6   H  1S          0.01015   0.12352  -0.00003   0.09059   0.15351
  57        2S          0.00575   0.07159  -0.00002   0.06584   0.12110
  58 7   H  1S         -0.14648   0.10480   0.00004  -0.12496   0.07985
  59        2S         -0.08485   0.06945   0.00003  -0.08334   0.06949
  60 8   H  1S         -0.13499   0.05380  -0.00002   0.07134  -0.17650
  61        2S         -0.07138   0.02894  -0.00001   0.04971  -0.13761
  62 9   C  1S          0.02699   0.03737   0.00000  -0.00142  -0.00229
  63        2S         -0.02338  -0.02513   0.00000  -0.00096  -0.00322
  64        2PX         0.08548   0.18192   0.00005  -0.05760  -0.12854
  65        2PY        -0.00299   0.04752  -0.00010   0.26838   0.00554
  66        2PZ        -0.00000  -0.00001   0.31457   0.00011   0.00001
  67        3S         -0.11043  -0.19551  -0.00001   0.01365   0.04038
  68        3PX         0.03919   0.08942   0.00003  -0.04211  -0.08278
  69        3PY        -0.00768   0.03105  -0.00008   0.22408   0.01555
  70        3PZ        -0.00000  -0.00000   0.26340   0.00009   0.00001
  71 10  H  1S         -0.03813  -0.05645   0.17503   0.09619   0.03926
  72        2S         -0.02730  -0.04185   0.15695   0.08399   0.03984
  73 11  H  1S         -0.03814  -0.05645  -0.17509   0.09609   0.03926
  74        2S         -0.02730  -0.04185  -0.15700   0.08390   0.03984
  75 12  H  1S         -0.03189  -0.08224   0.00005  -0.16856   0.01568
  76        2S         -0.02434  -0.06007   0.00004  -0.14793   0.01373
                          21        22        23        24        25
                           O         O         O         O         O
     Eigenvalues --    -0.52986  -0.51031  -0.50380  -0.47055  -0.33430
   1 1   C  1S          0.01304   0.00000  -0.00805   0.02064  -0.00000
   2        2S         -0.02076  -0.00000   0.00683  -0.01624   0.00000
   3        2PX         0.16189  -0.00000  -0.09016  -0.11269   0.00000
   4        2PY        -0.17020  -0.00002  -0.09613   0.12192   0.00000
   5        2PZ        -0.00001   0.18304  -0.00002   0.00000  -0.16948
   6        3S          0.03375   0.00000   0.07403  -0.12284   0.00000
   7        3PX         0.09029  -0.00001  -0.11733  -0.05787   0.00000
   8        3PY        -0.16739  -0.00002  -0.13027   0.13035   0.00000
   9        3PZ        -0.00001   0.18861  -0.00002   0.00000  -0.21722
  10 2   C  1S         -0.01313  -0.00000   0.02341  -0.01840   0.00000
  11        2S          0.01478   0.00000  -0.02192   0.02129  -0.00000
  12        2PX        -0.19251  -0.00001   0.09883   0.11989   0.00001
  13        2PY         0.01794   0.00002   0.23695  -0.04169  -0.00000
  14        2PZ        -0.00001   0.14148  -0.00001   0.00000  -0.28814
  15        3S         -0.00846  -0.00000  -0.10444   0.07819  -0.00001
  16        3PX        -0.18153  -0.00001   0.02526   0.09249   0.00001
  17        3PY         0.11142   0.00002   0.21925  -0.04544  -0.00000
  18        3PZ        -0.00001   0.12797  -0.00001   0.00000  -0.35321
  19 3   C  1S          0.02802   0.00000   0.01086  -0.01818  -0.00000
  20        2S         -0.03135  -0.00000  -0.01125   0.01901   0.00000
  21        2PX         0.20962   0.00000  -0.10041   0.14236  -0.00000
  22        2PY         0.01634  -0.00002  -0.23463  -0.07793   0.00000
  23        2PZ        -0.00000   0.09057  -0.00000  -0.00000  -0.10254
  24        3S         -0.05767  -0.00001  -0.03816   0.09387   0.00000
  25        3PX         0.29304   0.00000  -0.09527   0.13576   0.00000
  26        3PY         0.04223  -0.00001  -0.18205  -0.07725   0.00000
  27        3PZ        -0.00000   0.09874  -0.00000   0.00000  -0.14029
  28 4   C  1S         -0.02566  -0.00000  -0.01975   0.01372   0.00000
  29        2S          0.03048   0.00000   0.02185  -0.00762  -0.00000
  30        2PX        -0.15813  -0.00002  -0.07849  -0.20277  -0.00000
  31        2PY        -0.04352   0.00001   0.10220   0.02236  -0.00000
  32        2PZ        -0.00001   0.15214  -0.00001  -0.00000   0.11839
  33        3S          0.02014   0.00001   0.07458  -0.12202  -0.00000
  34        3PX        -0.15328  -0.00002  -0.03249  -0.16135  -0.00000
  35        3PY        -0.10635   0.00001   0.11832  -0.04142  -0.00000
  36        3PZ        -0.00001   0.15209  -0.00001  -0.00000   0.15795
  37 5   S  1S         -0.00618  -0.00000  -0.00063   0.01959  -0.00000
  38        2S          0.03650   0.00000   0.00523  -0.11976   0.00000
  39        2PX        -0.03520   0.00000   0.03175  -0.19473   0.00000
  40        2PY        -0.13034  -0.00001  -0.05618   0.08341   0.00000
  41        2PZ         0.00000  -0.14921   0.00001  -0.00000  -0.16585
  42        3S         -0.04208  -0.00000  -0.00429   0.13390  -0.00000
  43        3PX         0.07200  -0.00001  -0.06372   0.41638  -0.00001
  44        3PY         0.27468   0.00003   0.11813  -0.17824  -0.00000
  45        3PZ        -0.00001   0.31422  -0.00003   0.00001   0.35702
  46        4S         -0.07157  -0.00001  -0.07949   0.39014   0.00000
  47        4PX         0.01700  -0.00001  -0.02335   0.26489  -0.00001
  48        4PY         0.12435   0.00001   0.05504  -0.11500  -0.00000
  49        4PZ        -0.00001   0.24613  -0.00002   0.00001   0.37357
  50        5XX        -0.03834  -0.00000   0.00140  -0.02647   0.00000
  51        5YY         0.04449   0.00000   0.01155  -0.03079   0.00000
  52        5ZZ        -0.00655  -0.00000  -0.00319   0.03338  -0.00000
  53        5XY        -0.02987  -0.00000  -0.01986  -0.01169   0.00000
  54        5XZ         0.00000  -0.03145   0.00000  -0.00000  -0.01888
  55        5YZ        -0.00000   0.01891  -0.00000  -0.00000  -0.02474
  56 6   H  1S         -0.03492  -0.00001  -0.09647  -0.00960   0.00000
  57        2S         -0.02023  -0.00001  -0.07330  -0.02550   0.00000
  58 7   H  1S          0.10145   0.00002   0.09830  -0.05347  -0.00000
  59        2S          0.06413   0.00002   0.08569  -0.05443  -0.00000
  60 8   H  1S          0.09176   0.00000  -0.04682   0.00249  -0.00000
  61        2S          0.06400   0.00000  -0.04127  -0.01821  -0.00000
  62 9   C  1S          0.01179   0.00000  -0.00613   0.00891  -0.00000
  63        2S         -0.02133  -0.00000   0.00908  -0.01025  -0.00000
  64        2PX        -0.23509  -0.00001   0.08079  -0.11173   0.00000
  65        2PY         0.00952   0.00001   0.23028   0.08234   0.00000
  66        2PZ         0.00003  -0.18026   0.00001   0.00001   0.03931
  67        3S          0.05419  -0.00001   0.00029  -0.01617   0.00001
  68        3PX        -0.12929  -0.00001   0.04835  -0.08974   0.00001
  69        3PY         0.01753   0.00001   0.22958   0.09219  -0.00000
  70        3PZ         0.00003  -0.17455   0.00002   0.00000   0.06124
  71 10  H  1S          0.05912  -0.11251   0.06018   0.05500   0.03154
  72        2S          0.07222  -0.11020   0.05708   0.06193   0.03007
  73 11  H  1S          0.05909   0.11252   0.06017   0.05501  -0.03153
  74        2S          0.07220   0.11021   0.05707   0.06193  -0.03007
  75 12  H  1S          0.02866  -0.00000  -0.18492  -0.04970  -0.00000
  76        2S          0.04182  -0.00000  -0.19102  -0.04760  -0.00001
                          26        27        28        29        30
                           O         V         V         V         V
     Eigenvalues --    -0.31963   0.14066   0.21445   0.22458   0.26346
   1 1   C  1S         -0.00000   0.00000   0.08090   0.00000   0.06703
   2        2S          0.00000   0.00000  -0.03468   0.00000  -0.03748
   3        2PX         0.00001  -0.00001  -0.07612   0.00000  -0.11574
   4        2PY         0.00000  -0.00000   0.14607   0.00001   0.02162
   5        2PZ        -0.22218   0.27188   0.00001  -0.14027  -0.00001
   6        3S         -0.00000  -0.00000  -1.02584  -0.00001  -0.74636
   7        3PX         0.00001  -0.00001  -0.16003   0.00002  -0.61194
   8        3PY         0.00000  -0.00001   0.38343   0.00005   0.01633
   9        3PZ        -0.29301   0.60632   0.00002  -0.41579  -0.00003
  10 2   C  1S         -0.00000   0.00000  -0.02282  -0.00000   0.04847
  11        2S          0.00000  -0.00000   0.02238  -0.00000  -0.02443
  12        2PX        -0.00000   0.00001   0.06389  -0.00001   0.03761
  13        2PY        -0.00000   0.00000   0.04573   0.00001  -0.04148
  14        2PZ        -0.02494  -0.16323  -0.00001   0.24904   0.00001
  15        3S          0.00000  -0.00001   0.17520   0.00006  -0.67263
  16        3PX         0.00000   0.00001   0.19909  -0.00003   0.01686
  17        3PY        -0.00000  -0.00000   0.17943   0.00003  -0.24527
  18        3PZ        -0.02869  -0.35124  -0.00002   0.67493   0.00003
  19 3   C  1S          0.00000  -0.00000   0.01235  -0.00000   0.02287
  20        2S         -0.00000   0.00000  -0.01369  -0.00000   0.00050
  21        2PX         0.00000  -0.00000  -0.02385  -0.00001   0.00959
  22        2PY         0.00000  -0.00000   0.08287   0.00000   0.04109
  23        2PZ         0.25531  -0.15244   0.00001  -0.27929  -0.00001
  24        3S         -0.00000   0.00001  -0.03681   0.00005  -0.60653
  25        3PX         0.00000  -0.00002  -0.04297  -0.00001  -0.15162
  26        3PY         0.00000   0.00001   0.24238  -0.00001   0.14900
  27        3PZ         0.31956  -0.31566   0.00002  -0.63111  -0.00004
  28 4   C  1S         -0.00000   0.00000  -0.08109  -0.00000   0.06382
  29        2S          0.00000  -0.00000   0.03530   0.00000  -0.04701
  30        2PX        -0.00001  -0.00001   0.15897   0.00000  -0.02554
  31        2PY         0.00000  -0.00000   0.01718  -0.00001   0.09943
  32        2PZ         0.27037   0.25457   0.00000   0.15511   0.00000
  33        3S          0.00001   0.00001   1.01774   0.00003  -0.57426
  34        3PX        -0.00001  -0.00002   0.40669  -0.00001  -0.23546
  35        3PY         0.00000   0.00000   0.06604  -0.00004   0.72648
  36        3PZ         0.35622   0.57047  -0.00000   0.41877   0.00002
  37 5   S  1S         -0.00000   0.00000   0.00049   0.00000   0.01176
  38        2S          0.00000  -0.00000  -0.00300  -0.00000  -0.07350
  39        2PX        -0.00000  -0.00000  -0.05342  -0.00000   0.03485
  40        2PY        -0.00000   0.00000  -0.11121  -0.00000  -0.02731
  41        2PZ         0.09375   0.10769  -0.00000   0.00238   0.00000
  42        3S         -0.00000   0.00000   0.00192  -0.00000   0.05487
  43        3PX         0.00001   0.00000   0.09605   0.00000  -0.08462
  44        3PY         0.00000   0.00000   0.19944   0.00001   0.05921
  45        3PZ        -0.20224  -0.23215   0.00000  -0.00573  -0.00000
  46        4S         -0.00000   0.00000   0.01415   0.00004   0.46246
  47        4PX         0.00001   0.00000   0.56556  -0.00002  -0.11058
  48        4PY         0.00000  -0.00001   1.17627   0.00005   0.22027
  49        4PZ        -0.21769  -0.49597   0.00001  -0.00536  -0.00000
  50        5XX         0.00000   0.00000   0.10694   0.00000   0.04245
  51        5YY        -0.00000   0.00000  -0.10745  -0.00000  -0.07507
  52        5ZZ        -0.00000  -0.00000   0.00145  -0.00000   0.04280
  53        5XY         0.00000  -0.00000   0.09529   0.00001  -0.05992
  54        5XZ        -0.02371  -0.06439   0.00000  -0.04308  -0.00000
  55        5YZ        -0.04930   0.03614   0.00000  -0.07708  -0.00000
  56 6   H  1S          0.00000   0.00000  -0.03034  -0.00001   0.05764
  57        2S          0.00000   0.00000   0.07532  -0.00005   0.85497
  58 7   H  1S          0.00000   0.00000  -0.03484  -0.00001  -0.00116
  59        2S          0.00000   0.00001  -0.26781  -0.00008   0.54565
  60 8   H  1S          0.00000  -0.00000   0.02708  -0.00000   0.05672
  61        2S          0.00000  -0.00000  -0.11625  -0.00005   1.07774
  62 9   C  1S          0.00000   0.00000  -0.03364   0.00001   0.05122
  63        2S          0.00000  -0.00000   0.01820  -0.00001  -0.01219
  64        2PX        -0.00000  -0.00000   0.02053  -0.00001   0.08610
  65        2PY        -0.00000  -0.00000   0.01399  -0.00000   0.07673
  66        2PZ        -0.07283   0.01054  -0.00000  -0.08290  -0.00000
  67        3S         -0.00001  -0.00002   0.33922  -0.00007  -0.73926
  68        3PX        -0.00001  -0.00000  -0.01447  -0.00003   0.38449
  69        3PY        -0.00000  -0.00002   0.00538   0.00000   0.30129
  70        3PZ        -0.07537   0.03358   0.00000  -0.37979  -0.00001
  71 10  H  1S         -0.06807   0.03453  -0.00694   0.06904  -0.00211
  72        2S         -0.10217   0.05733  -0.18480   0.53537   0.25998
  73 11  H  1S          0.06807  -0.03453  -0.00694  -0.06904  -0.00212
  74        2S          0.10217  -0.05729  -0.18480  -0.53527   0.25995
  75 12  H  1S          0.00000  -0.00001   0.01486  -0.00000   0.01545
  76        2S          0.00000  -0.00002  -0.05540   0.00000   0.75951
                          31        32        33        34        35
                           V         V         V         V         V
     Eigenvalues --     0.29184   0.30775   0.31567   0.34823   0.36664
   1 1   C  1S          0.01230   0.03087  -0.08900  -0.00300  -0.00001
   2        2S         -0.01454  -0.02130   0.03614  -0.01436   0.00002
   3        2PX        -0.02599  -0.00670   0.07890   0.10415   0.00002
   4        2PY        -0.15709   0.06545   0.04352   0.08370   0.00012
   5        2PZ        -0.00001  -0.00000   0.00001   0.00001  -0.03817
   6        3S         -0.13966  -0.25615   1.21815   0.20650  -0.00018
   7        3PX        -0.15779  -0.24325   0.47829   0.50736   0.00027
   8        3PY        -0.82706   0.23442   0.14500   0.13609   0.00086
   9        3PZ        -0.00004  -0.00001   0.00002   0.00003  -0.15712
  10 2   C  1S          0.02914  -0.01677   0.04095  -0.02913   0.00006
  11        2S         -0.00242   0.02416  -0.03781   0.00523  -0.00003
  12        2PX         0.05881  -0.08634   0.04279  -0.02945   0.00004
  13        2PY        -0.08868   0.07993   0.04582   0.09210  -0.00009
  14        2PZ         0.00002   0.00000   0.00000  -0.00001   0.13828
  15        3S         -0.49898   0.09843  -0.17493   0.56322  -0.00071
  16        3PX         0.35025  -0.30932   0.09046   0.11734   0.00043
  17        3PY        -0.22544   0.53334  -0.14781   0.41474  -0.00057
  18        3PZ         0.00006  -0.00000   0.00001  -0.00004   0.35901
  19 3   C  1S          0.00532  -0.00292  -0.00604  -0.02762  -0.00003
  20        2S          0.00610   0.01731   0.02696   0.00786   0.00003
  21        2PX         0.05202  -0.00911   0.04080   0.06522   0.00003
  22        2PY        -0.02249   0.01963   0.03732  -0.02544   0.00005
  23        2PZ        -0.00002  -0.00001  -0.00001   0.00002  -0.15895
  24        3S         -0.02197   0.05159  -0.22265   0.32289   0.00016
  25        3PX         0.29847   0.05569  -0.03415   0.17995  -0.00008
  26        3PY        -0.04134   0.15743  -0.02873  -0.03592   0.00021
  27        3PZ        -0.00005  -0.00002  -0.00003   0.00006  -0.65156
  28 4   C  1S         -0.00457   0.05261  -0.02931   0.07674   0.00003
  29        2S         -0.00773  -0.00753   0.01819  -0.03188  -0.00001
  30        2PX         0.05997  -0.15431   0.07663   0.10630   0.00000
  31        2PY         0.01898   0.03947   0.13718   0.16911  -0.00002
  32        2PZ         0.00001   0.00001   0.00001  -0.00000   0.03497
  33        3S          0.16340  -0.83520   0.29738  -1.07708  -0.00037
  34        3PX         0.49430  -0.60528   0.41649   0.49812  -0.00021
  35        3PY         0.18985   0.10256   0.66532   0.80789  -0.00015
  36        3PZ         0.00004   0.00001   0.00003  -0.00001   0.27457
  37 5   S  1S         -0.01403   0.01736  -0.01454  -0.00027   0.00001
  38        2S          0.08948  -0.11069   0.09407   0.00304  -0.00004
  39        2PX        -0.02355   0.04390  -0.03744   0.00585  -0.00001
  40        2PY         0.01234  -0.01235   0.01310  -0.01973  -0.00001
  41        2PZ        -0.00000   0.00000   0.00000  -0.00000  -0.00491
  42        3S          0.00388   0.03491  -0.01447   0.03559  -0.00006
  43        3PX         0.02622  -0.06879   0.07132  -0.01054   0.00005
  44        3PY        -0.01139   0.03241  -0.00374   0.06491   0.00002
  45        3PZ        -0.00000  -0.00000  -0.00000   0.00000   0.01676
  46        4S         -1.04433   0.98167  -0.89916  -0.33153   0.00086
  47        4PX         0.80073  -0.83149   0.65366   0.16147  -0.00055
  48        4PY        -0.43120   0.06099  -0.37467  -0.12458   0.00042
  49        4PZ         0.00001  -0.00002  -0.00000   0.00000  -0.03469
  50        5XX         0.02176  -0.03560   0.02775   0.01724  -0.00002
  51        5YY         0.00869  -0.02192   0.02203  -0.01138  -0.00002
  52        5ZZ        -0.06626   0.08067  -0.06667  -0.01468   0.00005
  53        5XY        -0.03766  -0.04657   0.01147   0.01637   0.00002
  54        5XZ        -0.00000  -0.00000  -0.00000   0.00000  -0.01667
  55        5YZ        -0.00001  -0.00000   0.00000   0.00000  -0.04316
  56 6   H  1S          0.02709   0.02705  -0.03870  -0.00552  -0.00001
  57        2S          0.91968   0.10211  -1.07200  -0.62859  -0.00082
  58 7   H  1S          0.07588  -0.00610   0.00945   0.01814  -0.00001
  59        2S          0.81834  -0.78859   0.28565  -0.57733   0.00104
  60 8   H  1S          0.03874   0.03599  -0.01817   0.03217   0.00002
  61        2S          0.30693   0.35781   0.64151   1.57329   0.00003
  62 9   C  1S         -0.11728  -0.09054  -0.00918  -0.01495  -0.00002
  63        2S          0.03721   0.01879   0.00460   0.01262   0.00000
  64        2PX        -0.01250  -0.14107   0.01440   0.03130  -0.00002
  65        2PY        -0.03427   0.10770   0.17685  -0.13215  -0.00008
  66        2PZ        -0.00001   0.00001   0.00001  -0.00003   0.29889
  67        3S          1.51791   1.32522   0.05429   0.15466   0.00019
  68        3PX        -0.09204  -0.53547   0.02812   0.13480  -0.00005
  69        3PY        -0.09705   0.38434   0.90113  -0.71076  -0.00034
  70        3PZ        -0.00004   0.00005   0.00002  -0.00014   1.42339
  71 10  H  1S         -0.00315  -0.01162  -0.03046   0.03630  -0.02511
  72        2S         -0.56395  -0.96797  -0.51285   0.38542  -1.32708
  73 11  H  1S         -0.00316  -0.01162  -0.03047   0.03630   0.02510
  74        2S         -0.56406  -0.96799  -0.51291   0.38525   1.32707
  75 12  H  1S         -0.00842   0.00099   0.06589  -0.06356  -0.00000
  76        2S         -0.74094  -0.16809   1.06921  -0.87351  -0.00043
                          36        37        38        39        40
                           V         V         V         V         V
     Eigenvalues --     0.36930   0.45516   0.49386   0.54104   0.61299
   1 1   C  1S         -0.00820   0.05391   0.08303   0.01058  -0.00766
   2        2S          0.02953   0.00199  -0.01368   0.03358  -0.03760
   3        2PX         0.01791   0.00559   0.10225  -0.06542  -0.05297
   4        2PY         0.16823  -0.10083  -0.03113   0.05853  -0.01782
   5        2PZ         0.00003  -0.00000   0.00001  -0.00000  -0.00000
   6        3S         -0.32623  -1.31688  -1.63086  -0.66461  -0.20310
   7        3PX         0.35093   0.62612   1.24755   0.72059  -0.36174
   8        3PY         1.29685  -0.38933   0.22733   0.51792   0.37650
   9        3PZ         0.00011   0.00001   0.00002   0.00002  -0.00000
  10 2   C  1S          0.09300   0.01179  -0.07910  -0.10472   0.02410
  11        2S         -0.04623  -0.01438   0.02132  -0.01386  -0.04767
  12        2PX         0.05585   0.13346   0.12412   0.02241  -0.05877
  13        2PY        -0.14661   0.06720  -0.04715  -0.15034   0.06831
  14        2PZ        -0.00008   0.00000   0.00000  -0.00000  -0.00000
  15        3S         -1.14308   0.22944   1.48741   2.70791  -0.28248
  16        3PX         0.63830   1.29104   0.77139  -0.21742  -0.37718
  17        3PY        -0.86578   0.49626   0.00345  -2.28186   0.01170
  18        3PZ        -0.00021   0.00000   0.00003  -0.00003  -0.00001
  19 3   C  1S         -0.03494  -0.16701   0.05463   0.04723  -0.00101
  20        2S          0.03089   0.03767  -0.02964   0.02877  -0.03912
  21        2PX         0.05000  -0.07373   0.23085  -0.13761  -0.09338
  22        2PY         0.08339  -0.02352  -0.05854  -0.21957  -0.02164
  23        2PZ         0.00011   0.00001  -0.00001   0.00000   0.00000
  24        3S          0.24498   3.08253  -0.54935  -1.29272   0.24022
  25        3PX        -0.07154  -0.65884   1.66505  -1.98597  -0.03764
  26        3PY         0.29911  -0.12127  -0.50496  -2.13578  -0.08974
  27        3PZ         0.00043   0.00007  -0.00006   0.00000   0.00001
  28 4   C  1S          0.03638   0.05909   0.04573   0.03294   0.00680
  29        2S         -0.00655  -0.01774   0.01630  -0.02485  -0.03270
  30        2PX        -0.02561   0.05168   0.00787   0.04633   0.00602
  31        2PY        -0.05626  -0.04245  -0.00091   0.02972   0.03368
  32        2PZ        -0.00002   0.00000   0.00000   0.00001   0.00000
  33        3S         -0.52410  -0.84921  -1.46351  -0.27401  -0.60446
  34        3PX        -0.40572   0.69148  -0.07374   0.56651  -0.15794
  35        3PY        -0.38111  -0.44483  -1.12795   0.61914  -0.21081
  36        3PZ        -0.00019  -0.00001   0.00003   0.00000  -0.00001
  37 5   S  1S          0.00950   0.00189  -0.00449   0.00230  -0.05426
  38        2S         -0.06911  -0.01341   0.00472  -0.01707   0.22481
  39        2PX        -0.01487  -0.00524  -0.04241   0.04019   0.04651
  40        2PY        -0.01011  -0.01831   0.03269   0.10326  -0.03145
  41        2PZ         0.00000   0.00000  -0.00000   0.00000   0.00000
  42        3S         -0.11002   0.00691  -0.30196   0.00537  -1.57147
  43        3PX         0.07934   0.05212   0.16525  -0.10944  -0.13751
  44        3PY         0.01697   0.05371  -0.12034  -0.35754   0.09326
  45        3PZ        -0.00001  -0.00000   0.00000  -0.00001  -0.00000
  46        4S          1.43253  -0.15265   1.13681  -0.01304   2.65179
  47        4PX        -0.93488  -0.20234  -1.05062   0.11023  -0.35744
  48        4PY         0.64838   0.05917   0.26531   0.63921   0.28287
  49        4PZ         0.00001   0.00000  -0.00003   0.00000  -0.00000
  50        5XX        -0.03656  -0.09090  -0.11734   0.01997  -0.24604
  51        5YY        -0.03451   0.09040   0.01083  -0.05549  -0.27742
  52        5ZZ         0.08210  -0.00946   0.03716   0.01640   0.00056
  53        5XY         0.01681   0.07368   0.10413   0.10903  -0.02705
  54        5XZ         0.00001  -0.00000  -0.00000  -0.00000  -0.00000
  55        5YZ         0.00003   0.00000  -0.00000   0.00000  -0.00000
  56 6   H  1S         -0.01060  -0.08486  -0.02548   0.04199  -0.08828
  57        2S         -1.17089   0.42219  -0.22602  -0.43929   0.01810
  58 7   H  1S         -0.00633  -0.00006   0.02373   0.01214   0.01661
  59        2S          1.60249   0.18883  -0.08696   0.72530  -0.14953
  60 8   H  1S          0.03680  -0.03451  -0.05918  -0.07442  -0.08331
  61        2S         -0.18209   0.09956  -0.46443   0.71224  -0.01019
  62 9   C  1S         -0.02318   0.08548  -0.06162   0.02168   0.01133
  63        2S          0.00775   0.02064   0.00120   0.02795  -0.00470
  64        2PX        -0.04146  -0.05487   0.11324  -0.04951   0.00108
  65        2PY        -0.07727   0.09354   0.11580   0.00247  -0.02787
  66        2PZ        -0.00020   0.00001   0.00000  -0.00000  -0.00000
  67        3S          0.29987  -1.54434   1.18674  -0.96475  -0.11807
  68        3PX        -0.18884  -1.25758   1.32816  -1.06812  -0.21060
  69        3PY        -0.31644   0.17326   0.60597   0.50792  -0.00268
  70        3PZ        -0.00095   0.00005  -0.00002   0.00005   0.00001
  71 10  H  1S         -0.01064  -0.02752   0.07086  -0.02113  -0.02667
  72        2S         -0.05048  -0.07760  -0.08326  -0.29715  -0.00125
  73 11  H  1S         -0.01068  -0.02751   0.07087  -0.02113  -0.02667
  74        2S         -0.05225  -0.07761  -0.08323  -0.29721  -0.00126
  75 12  H  1S          0.00061  -0.04872   0.01480  -0.08015   0.00449
  76        2S         -0.53144   0.49527   0.55210   0.18333  -0.04514
                          41        42        43        44        45
                           V         V         V         V         V
     Eigenvalues --     0.66453   0.71969   0.77423   0.78159   0.86164
   1 1   C  1S          0.04890  -0.00000   0.03477  -0.05534   0.02335
   2        2S          0.01948   0.00000  -0.06883   0.01851   0.00378
   3        2PX         0.17348   0.00000   0.12724   0.02339  -0.28464
   4        2PY        -0.02680   0.00000   0.20146  -0.13953   0.04165
   5        2PZ         0.00000  -0.04466   0.00001   0.00000  -0.00001
   6        3S         -1.78610   0.00001   0.26577   0.42065   0.07293
   7        3PX         1.94098  -0.00000  -0.24865  -0.84171   0.58866
   8        3PY        -0.36042  -0.00000   0.18586   0.00500  -0.10464
   9        3PZ         0.00003  -0.13308  -0.00001  -0.00001   0.00001
  10 2   C  1S         -0.05710   0.00000  -0.03283   0.06267  -0.00283
  11        2S          0.00554   0.00000   0.05216  -0.05904   0.00601
  12        2PX         0.09017   0.00000  -0.10559  -0.10418   0.40417
  13        2PY         0.00527   0.00000  -0.14467   0.09931  -0.00038
  14        2PZ         0.00001  -0.04427  -0.00001  -0.00001   0.00000
  15        3S          1.42972  -0.00001   0.14207  -1.25315   0.34601
  16        3PX         2.52632  -0.00000  -0.06280  -0.51714  -0.15382
  17        3PY        -0.27690   0.00000  -0.19336   0.78315   0.05599
  18        3PZ         0.00004   0.01165   0.00000   0.00000  -0.00001
  19 3   C  1S          0.05688   0.00000  -0.03501  -0.05903   0.00806
  20        2S         -0.01292  -0.00000   0.04048   0.05397   0.04943
  21        2PX        -0.15254   0.00000   0.09776   0.16899   0.20605
  22        2PY         0.28113   0.00000  -0.04433   0.00460  -0.03917
  23        2PZ        -0.00000  -0.05382  -0.00000  -0.00000   0.00001
  24        3S         -1.61942  -0.00000   0.42964   1.06317  -0.49279
  25        3PX        -1.99748   0.00000   0.85726   1.15257  -0.43276
  26        3PY         2.05169   0.00000  -0.92247   0.02270   0.42242
  27        3PZ        -0.00001   0.02427  -0.00000   0.00001  -0.00000
  28 4   C  1S         -0.06311   0.00000   0.06298   0.05942  -0.00812
  29        2S         -0.05949   0.00000  -0.06476  -0.02624   0.02681
  30        2PX        -0.06509   0.00000   0.00496  -0.09121  -0.30971
  31        2PY         0.00564   0.00000  -0.24922  -0.09468   0.23428
  32        2PZ        -0.00001  -0.04004  -0.00000  -0.00000  -0.00000
  33        3S          2.30753  -0.00000  -0.64060  -0.46151   0.55898
  34        3PX        -1.79690   0.00000   0.42868   0.42803  -0.00062
  35        3PY         1.71004  -0.00000  -0.61718  -0.74579   0.17192
  36        3PZ        -0.00004  -0.13852   0.00001   0.00001  -0.00000
  37 5   S  1S         -0.00417  -0.00000   0.01122   0.00024   0.00785
  38        2S          0.02142   0.00000  -0.05450  -0.00008  -0.04540
  39        2PX         0.10877  -0.00001   0.27044   0.15546   0.12055
  40        2PY         0.06721  -0.00000  -0.17301   0.28995  -0.04768
  41        2PZ         0.00000   0.34088   0.00001   0.00000   0.00000
  42        3S         -0.08917  -0.00000   0.28669   0.00920   0.18940
  43        3PX        -0.37571   0.00003  -0.98139  -0.56335  -0.39809
  44        3PY        -0.19551   0.00000   0.61117  -1.03821   0.16977
  45        3PZ        -0.00001  -1.23493  -0.00002  -0.00001  -0.00001
  46        4S          0.11347   0.00000  -0.27893   0.02786  -0.38466
  47        4PX        -0.00662  -0.00003   1.01401   0.65671   0.30071
  48        4PY        -0.71809  -0.00000  -0.36497   1.26385  -0.30385
  49        4PZ         0.00001   1.27901   0.00002   0.00001   0.00000
  50        5XX         0.05191  -0.00000   0.04758  -0.05629  -0.24690
  51        5YY        -0.05178   0.00000  -0.01377   0.07293   0.14548
  52        5ZZ        -0.01960   0.00000   0.02201  -0.00552   0.07383
  53        5XY        -0.04611   0.00000  -0.02051  -0.06556   0.26013
  54        5XZ         0.00000   0.14222  -0.00000  -0.00000  -0.00000
  55        5YZ        -0.00000  -0.07239  -0.00000  -0.00000   0.00001
  56 6   H  1S          0.00569  -0.00000   0.11666  -0.19378  -0.17443
  57        2S         -0.34296  -0.00000  -0.24893   0.19425   0.04729
  58 7   H  1S         -0.01862   0.00000  -0.01637   0.06510  -0.27958
  59        2S          0.66979  -0.00000   0.13799  -0.43127   0.09149
  60 8   H  1S          0.01999  -0.00000   0.05530   0.19783  -0.10785
  61        2S          0.27184   0.00000  -0.38317  -0.26797   0.18937
  62 9   C  1S          0.00640  -0.00000  -0.00333  -0.00446  -0.00562
  63        2S          0.04114   0.00000  -0.02553  -0.02377  -0.02537
  64        2PX         0.03284  -0.00000  -0.07337  -0.08361  -0.22077
  65        2PY         0.10732  -0.00000   0.12637   0.00133  -0.31857
  66        2PZ        -0.00001   0.02736   0.00000   0.00000   0.00000
  67        3S         -0.70984   0.00001   0.33976   0.44559  -0.01606
  68        3PX        -0.47027   0.00001   0.38088   0.49341   0.24385
  69        3PY        -0.79342   0.00000   0.28230   0.06143   0.22912
  70        3PZ         0.00004  -0.00831  -0.00002  -0.00003  -0.00001
  71 10  H  1S          0.02760   0.01275   0.08975   0.03713  -0.10113
  72        2S          0.13573  -0.02585  -0.10406   0.02406   0.05974
  73 11  H  1S          0.02760  -0.01275   0.08977   0.03714  -0.10116
  74        2S          0.13577   0.02584  -0.10409   0.02406   0.05975
  75 12  H  1S         -0.08959   0.00000  -0.08659   0.04663   0.28635
  76        2S         -0.38284  -0.00000   0.33166   0.06459  -0.22061
                          46        47        48        49        50
                           V         V         V         V         V
     Eigenvalues --     0.88729   0.95202   0.95550   0.98258   1.01197
   1 1   C  1S         -0.02553  -0.00000  -0.00469   0.00000   0.05729
   2        2S          0.00039   0.00010   0.10717  -0.00001  -0.13817
   3        2PX        -0.03928  -0.00023  -0.26372   0.00001   0.52381
   4        2PY        -0.28799   0.00021   0.22499  -0.00003  -0.24229
   5        2PZ        -0.00000  -0.15732   0.00018   0.79596  -0.00000
   6        3S          0.06146   0.00027   0.30126  -0.00003  -0.53610
   7        3PX        -0.35432   0.00032   0.31446  -0.00001  -0.09200
   8        3PY         0.56138  -0.00061  -0.65129   0.00007   0.61959
   9        3PZ         0.00000   0.06531  -0.00009  -0.59949   0.00000
  10 2   C  1S          0.02076   0.00005   0.05806  -0.00001  -0.06994
  11        2S         -0.06008   0.00000   0.00953  -0.00001  -0.19650
  12        2PX        -0.22199   0.00039   0.38755  -0.00001   0.19531
  13        2PY        -0.22579   0.00036   0.37625  -0.00001   0.11422
  14        2PZ        -0.00001  -0.38277   0.00038   0.18736  -0.00000
  15        3S         -0.36155  -0.00025  -0.30249   0.00003   0.62515
  16        3PX        -0.11567  -0.00033  -0.34359   0.00000   0.04994
  17        3PY         0.26136   0.00012   0.13272  -0.00001  -0.32630
  18        3PZ         0.00000   0.32007  -0.00030  -0.04921  -0.00000
  19 3   C  1S          0.00409  -0.00008  -0.08526   0.00000  -0.02293
  20        2S         -0.07740   0.00003   0.02174  -0.00000  -0.11584
  21        2PX         0.04839  -0.00007  -0.04610  -0.00002  -0.21799
  22        2PY         0.18480   0.00018   0.20989  -0.00003  -0.33892
  23        2PZ        -0.00001  -0.45393   0.00043   0.12350  -0.00004
  24        3S         -0.24304  -0.00004  -0.03526  -0.00001  -0.25257
  25        3PX         0.03577   0.00071   0.70940   0.00002   0.41333
  26        3PY         0.06753   0.00010   0.10228   0.00000  -0.24831
  27        3PZ        -0.00001   0.07096  -0.00009  -0.24700   0.00001
  28 4   C  1S         -0.00754   0.00003   0.02701   0.00000   0.02941
  29        2S         -0.04821  -0.00012  -0.12844   0.00000  -0.03529
  30        2PX         0.35830   0.00030   0.30853  -0.00000   0.24084
  31        2PY         0.16830  -0.00018  -0.18859   0.00001  -0.16633
  32        2PZ        -0.00001  -0.58772   0.00055  -0.21840   0.00015
  33        3S         -0.09163  -0.00030  -0.29961  -0.00001  -0.52786
  34        3PX        -0.74368  -0.00045  -0.47551   0.00001  -0.17404
  35        3PY        -0.26544  -0.00016  -0.16848  -0.00001  -0.09094
  36        3PZ        -0.00000   0.47385  -0.00044   0.23472  -0.00010
  37 5   S  1S         -0.00674  -0.00000  -0.00032  -0.00000  -0.00489
  38        2S          0.04797  -0.00000  -0.00017   0.00000   0.02896
  39        2PX        -0.02676  -0.00002  -0.01781   0.00000  -0.02007
  40        2PY        -0.00374   0.00000   0.00021   0.00000   0.00923
  41        2PZ        -0.00000   0.00112  -0.00000  -0.00467  -0.00000
  42        3S         -0.17272   0.00000  -0.00026  -0.00000  -0.17029
  43        3PX         0.02487   0.00004   0.04835  -0.00001   0.04588
  44        3PY         0.03277  -0.00005  -0.05762   0.00000   0.00452
  45        3PZ         0.00000  -0.00128   0.00001   0.01614   0.00001
  46        4S          0.80213  -0.00010  -0.10309   0.00004   0.72215
  47        4PX        -0.34280  -0.00018  -0.19293  -0.00000  -0.27185
  48        4PY         0.11514  -0.00035  -0.37055   0.00003   0.23690
  49        4PZ        -0.00001  -0.13275   0.00012   0.07131   0.00001
  50        5XX         0.09240   0.00014   0.12895  -0.00000   0.18080
  51        5YY         0.25007  -0.00019  -0.20071   0.00002   0.00798
  52        5ZZ        -0.21213   0.00003   0.04513  -0.00001  -0.12898
  53        5XY         0.20133   0.00001   0.02249   0.00000  -0.21105
  54        5XZ         0.00001  -0.32183   0.00034   0.09468   0.00013
  55        5YZ         0.00001   0.01097  -0.00003  -0.55816   0.00008
  56 6   H  1S         -0.33830   0.00025   0.25696  -0.00001   0.08579
  57        2S          0.17439  -0.00001   0.00262  -0.00001  -0.26078
  58 7   H  1S         -0.19272   0.00032   0.36177  -0.00004  -0.48653
  59        2S          0.05532  -0.00029  -0.32757   0.00002   0.31553
  60 8   H  1S         -0.40828   0.00000  -0.01358   0.00000   0.15168
  61        2S          0.11127  -0.00017  -0.18321   0.00000  -0.09874
  62 9   C  1S          0.00235   0.00002   0.02417  -0.00000   0.01654
  63        2S         -0.07244  -0.00012  -0.13507   0.00000  -0.08076
  64        2PX        -0.44032  -0.00054  -0.57979   0.00001  -0.38424
  65        2PY         0.15480   0.00002   0.04218  -0.00001  -0.30438
  66        2PZ        -0.00001  -0.39416   0.00036  -0.24884  -0.00006
  67        3S          0.17587   0.00036   0.36247   0.00002   0.20679
  68        3PX         0.48929   0.00077   0.80821  -0.00001   0.43999
  69        3PY        -0.31606  -0.00007  -0.10943   0.00003   0.69658
  70        3PZ         0.00003   0.72046  -0.00065   0.44971   0.00013
  71 10  H  1S          0.14113  -0.30126   0.09058  -0.13321  -0.09810
  72        2S         -0.02591  -0.04619   0.06777  -0.02653  -0.02376
  73 11  H  1S          0.14119   0.30138   0.09009   0.13318  -0.09798
  74        2S         -0.02591   0.04631   0.06768   0.02652  -0.02377
  75 12  H  1S         -0.20030   0.00005   0.01390   0.00002   0.25247
  76        2S         -0.06087  -0.00003  -0.02651   0.00000   0.16126
                          51        52        53        54        55
                           V         V         V         V         V
     Eigenvalues --     1.02093   1.06792   1.13057   1.13928   1.16262
   1 1   C  1S         -0.00001  -0.00000  -0.00000  -0.00000  -0.01610
   2        2S          0.00003   0.00001   0.00000  -0.00000  -0.01748
   3        2PX        -0.00011  -0.00001   0.00003   0.00000  -0.15133
   4        2PY         0.00005   0.00001   0.00001   0.00003   0.14835
   5        2PZ         0.02446  -0.01534  -0.70499  -0.20657   0.00002
   6        3S          0.00012   0.00003   0.00003   0.00001   0.00905
   7        3PX         0.00002  -0.00001  -0.00007   0.00004   0.50432
   8        3PY        -0.00013  -0.00004  -0.00003  -0.00014  -0.60276
   9        3PZ        -0.01813  -0.03834   0.99062   0.37688  -0.00002
  10 2   C  1S          0.00001   0.00000  -0.00000  -0.00001  -0.01256
  11        2S          0.00004   0.00001  -0.00001   0.00001   0.05800
  12        2PX        -0.00005   0.00001   0.00001  -0.00002  -0.20804
  13        2PY        -0.00004  -0.00003   0.00001  -0.00005  -0.29458
  14        2PZ         0.18880  -0.87067   0.29235  -0.07557   0.00001
  15        3S         -0.00014   0.00000  -0.00006  -0.00020  -0.59293
  16        3PX        -0.00001  -0.00004  -0.00002   0.00014   0.70805
  17        3PY         0.00009   0.00005   0.00002   0.00015   0.77389
  18        3PZ        -0.17960   0.88181  -0.39627  -0.03865  -0.00002
  19 3   C  1S          0.00001   0.00000   0.00000   0.00000   0.00254
  20        2S          0.00003   0.00000  -0.00001   0.00000   0.09182
  21        2PX         0.00003  -0.00000   0.00002  -0.00005  -0.47088
  22        2PY         0.00006   0.00007  -0.00003  -0.00016  -0.49833
  23        2PZ        -0.37663  -0.01816   0.44483  -0.09567  -0.00006
  24        3S          0.00007   0.00004  -0.00000   0.00004   0.19891
  25        3PX        -0.00006   0.00005  -0.00001  -0.00002   0.43733
  26        3PY         0.00006  -0.00010   0.00008   0.00048   1.60269
  27        3PZ         0.17943  -0.08656  -0.63046   0.02478   0.00014
  28 4   C  1S         -0.00001  -0.00000   0.00000  -0.00000  -0.00934
  29        2S          0.00001   0.00000  -0.00001   0.00002   0.09383
  30        2PX        -0.00007  -0.00001   0.00001  -0.00004  -0.27286
  31        2PY         0.00004   0.00000  -0.00000   0.00006   0.27260
  32        2PZ         0.42112   0.44852   0.03858  -0.63372   0.00017
  33        3S          0.00011  -0.00006   0.00005   0.00024   0.63725
  34        3PX         0.00006   0.00000  -0.00004  -0.00000   0.09321
  35        3PY         0.00001  -0.00001   0.00000   0.00001  -0.12577
  36        3PZ        -0.25379  -0.43220   0.10471   0.89226  -0.00028
  37 5   S  1S          0.00000   0.00000  -0.00000  -0.00000   0.00111
  38        2S         -0.00001  -0.00000   0.00000   0.00000  -0.00549
  39        2PX         0.00001   0.00000   0.00000  -0.00000  -0.01884
  40        2PY        -0.00000   0.00000   0.00000   0.00000   0.00456
  41        2PZ        -0.01483  -0.02800  -0.00783  -0.05854   0.00001
  42        3S          0.00005   0.00000   0.00000   0.00001   0.09810
  43        3PX        -0.00002  -0.00001  -0.00001   0.00002   0.09241
  44        3PY        -0.00000  -0.00001  -0.00001  -0.00001  -0.03461
  45        3PZ         0.05744   0.11152   0.02994   0.23288  -0.00004
  46        4S         -0.00017  -0.00001   0.00000  -0.00013  -0.63183
  47        4PX         0.00007   0.00001   0.00002   0.00004   0.05330
  48        4PY        -0.00004  -0.00001   0.00000  -0.00004  -0.28311
  49        4PZ        -0.00809  -0.05157  -0.25509  -0.56931   0.00012
  50        5XX        -0.00006  -0.00000  -0.00001  -0.00003   0.02179
  51        5YY         0.00000   0.00000   0.00001  -0.00004  -0.18714
  52        5ZZ         0.00005   0.00000   0.00000   0.00006   0.12007
  53        5XY         0.00004   0.00002   0.00002  -0.00001  -0.02452
  54        5XZ         0.57023   0.17674   0.01132   0.72285  -0.00017
  55        5YZ         0.27803  -0.42476  -0.48115  -0.10652  -0.00005
  56 6   H  1S         -0.00003  -0.00001   0.00000   0.00001  -0.05751
  57        2S          0.00005   0.00002   0.00002   0.00002   0.06877
  58 7   H  1S          0.00009   0.00003  -0.00002  -0.00004  -0.03554
  59        2S         -0.00006  -0.00004  -0.00000   0.00004   0.01957
  60 8   H  1S         -0.00003  -0.00002   0.00000   0.00006   0.22954
  61        2S          0.00002   0.00001  -0.00001  -0.00006  -0.26463
  62 9   C  1S         -0.00000  -0.00000  -0.00000   0.00001   0.05785
  63        2S          0.00003   0.00000   0.00000  -0.00001  -0.03342
  64        2PX         0.00012   0.00004   0.00001  -0.00010  -0.38613
  65        2PY         0.00006  -0.00003   0.00002   0.00015   0.42950
  66        2PZ        -0.43785   0.09778  -0.41441   0.15754   0.00003
  67        3S         -0.00004   0.00003   0.00002  -0.00003  -0.04517
  68        3PX        -0.00010  -0.00004   0.00002   0.00012   0.74730
  69        3PY        -0.00014   0.00006  -0.00005  -0.00036  -1.06591
  70        3PZ         0.80351  -0.01544   0.83641  -0.42986  -0.00003
  71 10  H  1S         -0.32350  -0.05634  -0.12414   0.25215   0.29726
  72        2S         -0.05177   0.00401  -0.16549  -0.03545   0.25457
  73 11  H  1S          0.32352   0.05631   0.12413  -0.25207   0.29738
  74        2S          0.05178  -0.00403   0.16550   0.03561   0.25455
  75 12  H  1S         -0.00002  -0.00001   0.00000  -0.00001   0.25271
  76        2S         -0.00004   0.00001  -0.00002  -0.00011  -0.39979
                          56        57        58        59        60
                           V         V         V         V         V
     Eigenvalues --     1.19651   1.20613   1.24412   1.27391   1.29458
   1 1   C  1S         -0.01402   0.00000   0.05258  -0.03777   0.03925
   2        2S          0.01691   0.00001   0.09237   0.15561   0.06927
   3        2PX         0.03016   0.00004   0.09491   0.53297  -0.05391
   4        2PY         0.03704  -0.00006  -0.43044  -0.10234  -0.49705
   5        2PZ         0.00007  -0.18095   0.00001   0.00002  -0.00000
   6        3S          0.23916  -0.00002  -0.24408   1.04587  -0.10425
   7        3PX        -0.08114  -0.00011  -0.57641  -1.41444  -0.47096
   8        3PY        -0.36429   0.00014   1.13933  -0.86278   1.13402
   9        3PZ        -0.00015   0.50679  -0.00005  -0.00004  -0.00002
  10 2   C  1S         -0.00381  -0.00000  -0.01578   0.01564   0.00632
  11        2S         -0.04550  -0.00000   0.08427   0.07909   0.15236
  12        2PX         0.16095   0.00005   0.19117   0.42889   0.16387
  13        2PY         0.17393   0.00007   0.18330  -0.61964  -0.06631
  14        2PZ        -0.00009   0.39443  -0.00004   0.00002  -0.00001
  15        3S         -0.60992  -0.00001  -0.23657  -0.92660  -0.73406
  16        3PX         0.03402  -0.00008  -0.44555  -1.19730  -0.47972
  17        3PY         0.07054  -0.00017  -0.73001   1.64919  -0.08953
  18        3PZ         0.00018  -0.91490   0.00007  -0.00004   0.00002
  19 3   C  1S          0.00777  -0.00000   0.01246  -0.00211  -0.00398
  20        2S         -0.14668  -0.00002  -0.08294   0.10005   0.16813
  21        2PX         0.50028   0.00012  -0.01692  -0.02194  -0.10163
  22        2PY        -0.45260  -0.00000   0.10093   0.01719  -0.02862
  23        2PZ         0.00009  -0.78511   0.00004   0.00000   0.00001
  24        3S         -0.22213  -0.00008  -0.01214   0.32089  -0.28248
  25        3PX        -1.06821  -0.00028  -0.38199   0.27940   0.57338
  26        3PY         1.62051   0.00000  -0.32575   0.12912   0.26967
  27        3PZ        -0.00017   1.49389  -0.00009   0.00001  -0.00002
  28 4   C  1S          0.02393   0.00000  -0.05708  -0.04657   0.04052
  29        2S          0.00313  -0.00000  -0.07107   0.15334   0.04889
  30        2PX         0.30136   0.00005  -0.48804   0.19559   0.31674
  31        2PY        -0.00552  -0.00002  -0.03581  -0.08332   0.43039
  32        2PZ         0.00007   0.18718   0.00001  -0.00000   0.00000
  33        3S          1.04674   0.00008   0.69234   0.26471  -0.49615
  34        3PX        -0.77113  -0.00006   1.44608   0.18052  -1.08610
  35        3PY         0.50917   0.00009   0.17305   0.49071  -0.74433
  36        3PZ        -0.00006  -0.61039   0.00001   0.00001  -0.00000
  37 5   S  1S         -0.00222  -0.00000  -0.00014  -0.00104  -0.00877
  38        2S          0.01313   0.00001   0.00221   0.02305   0.04968
  39        2PX        -0.01380  -0.00000   0.00393  -0.02284   0.02935
  40        2PY        -0.00722  -0.00000   0.02138   0.03093  -0.00571
  41        2PZ         0.00001  -0.01631   0.00000   0.00000   0.00000
  42        3S         -0.03773  -0.00004   0.02815   0.17605  -0.43530
  43        3PX         0.04171  -0.00000   0.01633   0.06490  -0.20052
  44        3PY         0.01682   0.00001  -0.02718  -0.12218   0.05869
  45        3PZ        -0.00003   0.06586  -0.00001  -0.00000  -0.00000
  46        4S         -0.01123   0.00015  -0.20543  -0.96495   1.90883
  47        4PX        -0.07114  -0.00001   0.67223   0.64007  -0.56349
  48        4PY        -0.38138   0.00006   1.16667  -0.13218   0.34253
  49        4PZ         0.00008  -0.07177   0.00004   0.00002  -0.00001
  50        5XX        -0.09389  -0.00002  -0.31034  -0.30419   0.00234
  51        5YY        -0.06027   0.00004   0.22946  -0.26999   0.32062
  52        5ZZ         0.15152  -0.00000   0.07384   0.63104  -0.17538
  53        5XY         0.09382   0.00002  -0.26579   0.11743   0.31606
  54        5XZ        -0.00005  -0.12880  -0.00002  -0.00003   0.00001
  55        5YZ         0.00008  -0.46576   0.00002   0.00001   0.00002
  56 6   H  1S         -0.05123   0.00004   0.64581  -0.05945   0.59262
  57        2S          0.24097  -0.00005  -0.79959   0.77364  -0.72868
  58 7   H  1S         -0.27411  -0.00004  -0.07431   0.33313   0.27528
  59        2S          0.25909   0.00007   0.32854  -1.25959  -0.19871
  60 8   H  1S          0.33504   0.00000  -0.50650  -0.12231   0.54230
  61        2S         -0.23845   0.00002   0.62736   0.42082  -0.82692
[...]
  48        4PY         0.00000   0.00000   0.07585
  49        4PZ         0.00000   0.00000   0.00000   0.50647
  50        5XX         0.00699   0.00000   0.00000   0.00000   0.03898
  51        5YY         0.00813   0.00000   0.00000   0.00000   0.00520
  52        5ZZ         0.02909   0.00000   0.00000   0.00000   0.00617
  53        5XY         0.00000   0.00000   0.00000   0.00000   0.00000
  54        5XZ         0.00000   0.00000   0.00000   0.00000   0.00000
  55        5YZ         0.00000   0.00000   0.00000   0.00000   0.00000
  56 6   H  1S         -0.00176  -0.00007  -0.00348  -0.00000   0.00000
  57        2S         -0.00737  -0.00065  -0.00576  -0.00000   0.00020
  58 7   H  1S          0.00000   0.00010   0.00017   0.00000   0.00000
  59        2S         -0.00031   0.00117   0.00122   0.00000   0.00001
  60 8   H  1S         -0.00170  -0.00175  -0.00162  -0.00000  -0.00003
  61        2S         -0.00699  -0.00064  -0.00503   0.00000  -0.00084
  62 9   C  1S          0.00000  -0.00000   0.00000  -0.00000  -0.00000
  63        2S          0.00000   0.00003  -0.00000  -0.00000   0.00000
  64        2PX        -0.00001   0.00019  -0.00000  -0.00000   0.00000
  65        2PY         0.00000   0.00000   0.00000  -0.00000   0.00000
  66        2PZ        -0.00000   0.00000  -0.00000   0.00001   0.00000
  67        3S         -0.00025   0.00091   0.00002   0.00000   0.00000
  68        3PX        -0.00050   0.00259   0.00005   0.00000   0.00000
  69        3PY         0.00002   0.00011   0.00002  -0.00000   0.00000
  70        3PZ        -0.00000  -0.00000   0.00000   0.00029   0.00000
  71 10  H  1S         -0.00000  -0.00000   0.00000   0.00000   0.00000
  72        2S          0.00000  -0.00014   0.00000   0.00007  -0.00000
  73 11  H  1S         -0.00000  -0.00000   0.00000   0.00000   0.00000
  74        2S          0.00000  -0.00014   0.00000   0.00007  -0.00000
  75 12  H  1S          0.00000   0.00001   0.00000   0.00000   0.00000
  76        2S          0.00002   0.00012   0.00000   0.00000   0.00000
                          51        52        53        54        55
  51        5YY         0.04076
  52        5ZZ         0.00610   0.02241
  53        5XY         0.00000   0.00000   0.00992
  54        5XZ         0.00000   0.00000   0.00000   0.00429
  55        5YZ         0.00000   0.00000   0.00000   0.00000   0.00685
  56 6   H  1S         -0.00001  -0.00000   0.00001   0.00000   0.00000
  57        2S         -0.00054  -0.00007   0.00013   0.00000   0.00000
  58 7   H  1S          0.00000  -0.00000  -0.00000  -0.00000   0.00000
  59        2S          0.00001  -0.00000  -0.00001  -0.00000  -0.00000
  60 8   H  1S          0.00002  -0.00000   0.00001  -0.00000   0.00000
  61        2S          0.00074  -0.00007  -0.00011  -0.00000  -0.00000
  62 9   C  1S         -0.00000  -0.00000   0.00000   0.00000   0.00000
  63        2S          0.00000   0.00000  -0.00000   0.00000  -0.00000
  64        2PX         0.00000  -0.00000  -0.00000  -0.00000  -0.00000
  65        2PY        -0.00000  -0.00000   0.00000  -0.00000  -0.00000
  66        2PZ         0.00000   0.00000  -0.00000  -0.00000   0.00000
  67        3S          0.00000  -0.00000   0.00000  -0.00000   0.00000
  68        3PX         0.00000  -0.00000  -0.00000  -0.00000  -0.00000
  69        3PY         0.00000  -0.00000   0.00000   0.00000   0.00000
  70        3PZ         0.00000  -0.00000   0.00000  -0.00000   0.00000
  71 10  H  1S         -0.00000   0.00000   0.00000  -0.00000   0.00000
  72        2S         -0.00000   0.00000   0.00000  -0.00000   0.00000
  73 11  H  1S         -0.00000   0.00000   0.00000  -0.00000   0.00000
  74        2S         -0.00000   0.00000   0.00000  -0.00000   0.00000
  75 12  H  1S          0.00000  -0.00000   0.00000  -0.00000   0.00000
  76        2S          0.00000  -0.00000   0.00000  -0.00000   0.00000
                          56        57        58        59        60
  56 6   H  1S          0.17695
  57        2S          0.07175   0.07519
  58 7   H  1S         -0.00000  -0.00013   0.17824
  59        2S         -0.00010  -0.00027   0.07528   0.08094
  60 8   H  1S         -0.00000  -0.00000  -0.00000  -0.00000   0.17625
  61        2S         -0.00000  -0.00001  -0.00000  -0.00003   0.07214
  62 9   C  1S          0.00000   0.00000   0.00000   0.00000   0.00000
  63        2S         -0.00000  -0.00000  -0.00000  -0.00002  -0.00000
  64        2PX        -0.00000  -0.00000  -0.00000  -0.00000  -0.00000
  65        2PY        -0.00000  -0.00000  -0.00000   0.00000  -0.00000
  66        2PZ         0.00000   0.00000  -0.00000   0.00000  -0.00000
  67        3S         -0.00000  -0.00001  -0.00006  -0.00024  -0.00007
  68        3PX        -0.00000  -0.00002  -0.00003   0.00023  -0.00008
  69        3PY        -0.00000  -0.00001   0.00001   0.00064  -0.00007
  70        3PZ         0.00000   0.00000  -0.00000   0.00000  -0.00000
  71 10  H  1S         -0.00000  -0.00000  -0.00000  -0.00000   0.00000
  72        2S         -0.00000  -0.00000   0.00002   0.00018   0.00000
  73 11  H  1S         -0.00000  -0.00000  -0.00000  -0.00000   0.00000
  74        2S         -0.00000  -0.00000   0.00002   0.00018   0.00000
  75 12  H  1S          0.00000   0.00000   0.00000  -0.00000  -0.00000
  76        2S          0.00000   0.00000   0.00000  -0.00001   0.00008
                          61        62        63        64        65
  61        2S          0.07612
  62 9   C  1S          0.00000   2.03844
  63        2S         -0.00003   0.02284   0.09955
  64        2PX        -0.00004   0.00000   0.00000   0.27937
  65        2PY         0.00001   0.00000   0.00000   0.00000   0.27763
  66        2PZ         0.00000   0.00000   0.00000   0.00000   0.00000
  67        3S         -0.00041  -0.07964   0.17437   0.00000   0.00000
  68        3PX         0.00012   0.00000   0.00000   0.08302   0.00000
  69        3PY         0.00040   0.00000   0.00000   0.00000   0.13228
  70        3PZ         0.00000   0.00000   0.00000   0.00000   0.00000
  71 10  H  1S         -0.00000  -0.00076   0.00778   0.00814   0.01039
  72        2S         -0.00001   0.00142   0.00289   0.00738   0.00817
  73 11  H  1S         -0.00000  -0.00076   0.00778   0.00814   0.01039
  74        2S         -0.00001   0.00142   0.00289   0.00739   0.00817
  75 12  H  1S          0.00004  -0.00078   0.00794   0.00349   0.05173
  76        2S          0.00083   0.00127   0.00378   0.00323   0.04130
                          66        67        68        69        70
  66        2PZ         0.27659
  67        3S          0.00000   0.86814
  68        3PX         0.00000   0.00000   0.09223
  69        3PY         0.00000   0.00000   0.00000   0.22926
  70        3PZ         0.12930   0.00000   0.00000   0.00000   0.21856
  71 10  H  1S          0.03611   0.05672   0.00886   0.01805   0.05874
  72        2S          0.02938   0.03218   0.01124   0.01992   0.06723
  73 11  H  1S          0.03611   0.05672   0.00886   0.01806   0.05873
  74        2S          0.02938   0.03218   0.01125   0.01993   0.06721
  75 12  H  1S          0.00000   0.05680   0.00257   0.08405   0.00000
  76        2S          0.00000   0.03444   0.00360   0.09503   0.00000
                          71        72        73        74        75
  71 10  H  1S          0.17361
  72        2S          0.09539   0.14476
  73 11  H  1S         -0.00014  -0.00477   0.17362
  74        2S         -0.00477  -0.01631   0.09539   0.14476
  75 12  H  1S         -0.00013  -0.00423  -0.00013  -0.00423   0.17473
  76        2S         -0.00420  -0.01302  -0.00420  -0.01302   0.09420
                          76
  76        2S          0.13636
     Gross orbital populations:
                           1
   1 1   C  1S          1.98813
   2        2S          0.38597
   3        2PX         0.61023
   4        2PY         0.53139
   5        2PZ         0.43844
   6        3S          0.98145
   7        3PX         0.39633
   8        3PY         0.49577
   9        3PZ         0.66303
  10 2   C  1S          1.98819
  11        2S          0.38966
  12        2PX         0.59221
  13        2PY         0.57717
  14        2PZ         0.42537
  15        3S          0.90864
  16        3PX         0.30106
  17        3PY         0.43087
  18        3PZ         0.61755
  19 3   C  1S          1.98840
  20        2S          0.39316
  21        2PX         0.59958
  22        2PY         0.58945
  23        2PZ         0.41688
  24        3S          0.83925
  25        3PX         0.34125
  26        3PY         0.30191
  27        3PZ         0.58747
  28 4   C  1S          1.98818
  29        2S          0.38379
  30        2PX         0.53692
  31        2PY         0.59344
  32        2PZ         0.45479
  33        3S          0.97971
  34        3PX         0.34225
  35        3PY         0.52869
  36        3PZ         0.68482
  37 5   S  1S          1.99464
  38        2S          1.87381
  39        2PX         1.96295
  40        2PY         1.95972
  41        2PZ         1.96744
  42        3S          1.03888
  43        3PX         0.83792
  44        3PY         0.72448
  45        3PZ         0.89657
  46        4S          0.74718
  47        4PX         0.31713
  48        4PY         0.19834
  49        4PZ         0.82171
  50        5XX         0.06063
  51        5YY         0.06837
  52        5ZZ         0.00372
  53        5XY         0.03090
  54        5XZ         0.01224
  55        5YZ         0.02059
  56 6   H  1S          0.45928
  57        2S          0.27710
  58 7   H  1S          0.46314
  59        2S          0.29619
  60 8   H  1S          0.45863
  61        2S          0.28190
  62 9   C  1S          1.98839
  63        2S          0.35251
  64        2PX         0.54296
  65        2PY         0.53794
  66        2PZ         0.53509
  67        3S          1.15562
  68        3PX         0.32047
  69        3PY         0.58115
  70        3PZ         0.57641
  71 10  H  1S          0.45210
  72        2S          0.33362
  73 11  H  1S          0.45211
  74        2S          0.33362
  75 12  H  1S          0.45500
  76        2S          0.33815
          Condensed to atoms (all electrons):
               1          2          3          4          5          6
     1  C    5.530588   0.486335  -0.143772  -0.056628   0.305679   0.383780
     2  C    0.486335   5.260464   0.424671  -0.129462  -0.129029  -0.021698
     3  C   -0.143772   0.424671   5.400736   0.501430  -0.125915   0.001567
     4  C   -0.056628  -0.129462   0.501430   5.528599   0.302176   0.002428
     5  S    0.305679  -0.129029  -0.125915   0.302176  15.226080  -0.024797
     6  H    0.383780  -0.021698   0.001567   0.002428  -0.024797   0.395633
     7  H   -0.020608   0.392983  -0.028149   0.002357   0.002588  -0.000490
     8  H    0.002322   0.001564  -0.024542   0.387135  -0.023343  -0.000012
     9  C    0.002950  -0.054317   0.221150  -0.043586   0.003762  -0.000035
    10  H    0.000103  -0.001769  -0.058736   0.000571  -0.000072  -0.000000
    11  H    0.000103  -0.001769  -0.058733   0.000572  -0.000072  -0.000000
    12  H   -0.000107   0.002753  -0.052359  -0.002996   0.000158   0.000000
               7          8          9         10         11         12
     1  C   -0.020608   0.002322   0.002950   0.000103   0.000103  -0.000107
     2  C    0.392983   0.001564  -0.054317  -0.001769  -0.001769   0.002753
     3  C   -0.028149  -0.024542   0.221150  -0.058736  -0.058733  -0.052359
     4  C    0.002357   0.387135  -0.043586   0.000571   0.000572  -0.002996
     5  S    0.002588  -0.023343   0.003762  -0.000072  -0.000072   0.000158
     6  H   -0.000490  -0.000012  -0.000035  -0.000000  -0.000000   0.000000
     7  H    0.409747  -0.000027   0.000531   0.000204   0.000205  -0.000015
     8  H   -0.000027   0.396657  -0.000159  -0.000008  -0.000007   0.000951
     9  C    0.000531  -0.000159   5.304103   0.383849   0.383848   0.388446
    10  H    0.000204  -0.000008   0.383849   0.509163  -0.025989  -0.021592
    11  H    0.000205  -0.000007   0.383848  -0.025989   0.509158  -0.021591
    12  H   -0.000015   0.000951   0.388446  -0.021592  -0.021591   0.499501
 Mulliken charges:
               1
     1  C   -0.490743
     2  C   -0.230726
     3  C   -0.057348
     4  C   -0.492596
     5  S    0.462787
     6  H    0.263624
     7  H    0.240673
     8  H    0.259469
     9  C   -0.590543
    10  H    0.214277
    11  H    0.214277
    12  H    0.206849
 Sum of Mulliken charges =   0.00000
 Mulliken charges with hydrogens summed into heavy atoms:
               1
     1  C   -0.227120
     2  C    0.009947
     3  C   -0.057348
     4  C   -0.233128
     5  S    0.462787
     9  C    0.044861
 Electronic spatial extent (au):  <R**2>=            656.9474
 Charge=             -0.0000 electrons
 Dipole moment (field-independent basis, Debye):
    X=             -0.8050    Y=              0.3358    Z=              0.0000  Tot=              0.8722
 Quadrupole moment (field-independent basis, Debye-Ang):
   XX=            -41.3763   YY=            -38.8193   ZZ=            -47.8752
   XY=              1.5359   XZ=              0.0001   YZ=              0.0000
 Traceless Quadrupole moment (field-independent basis, Debye-Ang):
   XX=              1.3139   YY=              3.8710   ZZ=             -5.1849
   XY=              1.5359   XZ=              0.0001   YZ=              0.0000
 Octapole moment (field-independent basis, Debye-Ang**2):
  XXX=              0.3237  YYY=             -2.0149  ZZZ=              0.0004  XYY=              1.3370
  XXY=              5.8267  XXZ=              0.0002  XZZ=             -1.3608  YZZ=             -0.4564
  YYZ=             -0.0002  XYZ=              0.0003
 Hexadecapole moment (field-independent basis, Debye-Ang**3):
 XXXX=           -595.8728 YYYY=           -216.6994 ZZZZ=            -61.1342 XXXY=             10.8200
 XXXZ=              0.0011 YYYX=              3.7532 YYYZ=              0.0002 ZZZX=             -0.0006
 ZZZY=              0.0001 XXYY=           -130.9629 XXZZ=           -112.6210 YYZZ=            -57.6350
 XXYZ=             -0.0000 YYXZ=              0.0008 ZZXY=             -2.2667
 N-N= 2.730462068290D+02 E-N=-1.930989674045D+03  KE= 5.839298914137D+02
 Orbital energies and kinetic energies (alpha):
                                 1                 2
   1         O               -91.444081        119.678013
   2         O               -11.200786         15.875314
   3         O               -11.193246         15.875451
   4         O               -11.187402         15.876624
   5         O               -11.179728         15.876495
   6         O               -11.174810         15.877912
   7         O                -8.958506         18.455595
   8         O                -6.637772         17.326947
   9         O                -6.636815         17.337745
  10         O                -6.634397         17.379346
  11         O                -1.187098          1.611408
  12         O                -1.036763          1.612314
  13         O                -0.983372          1.698114
  14         O                -0.909175          1.607554
  15         O                -0.763968          1.473007
  16         O                -0.732692          1.358213
  17         O                -0.669924          1.229757
  18         O                -0.579365          0.902203
  19         O                -0.577344          1.129773
  20         O                -0.566391          1.325127
  21         O                -0.529861          1.556015
  22         O                -0.510308          1.156032
  23         O                -0.503803          1.305896
  24         O                -0.470547          1.884723
  25         O                -0.334296          1.363588
  26         O                -0.319628          1.191782
  27         V                 0.140664          1.374541
  28         V                 0.214454          1.410303
  29         V                 0.224578          1.204299
  30         V                 0.263455          1.083909
  31         V                 0.291837          1.085686
  32         V                 0.307754          1.193214
  33         V                 0.315669          1.146608
  34         V                 0.348226          1.030053
  35         V                 0.366636          1.032917
  36         V                 0.369303          1.110436
  37         V                 0.455160          1.715778
  38         V                 0.493857          1.626126
  39         V                 0.541038          1.666834
  40         V                 0.612994          2.025329
  41         V                 0.664529          1.860515
  42         V                 0.719688          2.945387
  43         V                 0.774229          3.412305
  44         V                 0.781589          3.438920
  45         V                 0.861643          2.397303
  46         V                 0.887287          2.161868
  47         V                 0.952022          2.408802
  48         V                 0.955497          2.745250
  49         V                 0.982584          2.594993
  50         V                 1.011974          2.829736
  51         V                 1.020930          2.427565
  52         V                 1.067923          2.653009
  53         V                 1.130569          2.569801
  54         V                 1.139277          2.416367
  55         V                 1.162621          3.036337
  56         V                 1.196512          2.854985
  57         V                 1.206132          2.698540
  58         V                 1.244121          2.655884
  59         V                 1.273914          3.139258
  60         V                 1.294584          2.893891
  61         V                 1.309932          3.030907
  62         V                 1.326522          2.864001
  63         V                 1.335618          3.008522
  64         V                 1.370841          2.852743
  65         V                 1.380511          3.098718
  66         V                 1.437767          3.052117
  67         V                 1.444745          3.216285
  68         V                 1.575632          2.804384
  69         V                 1.662219          2.947852
  70         V                 1.705197          2.971507
  71         V                 1.813886          3.191191
  72         V                 1.884034          3.220246
  73         V                 2.160871          3.321015
  74         V                 2.237527          3.437870
  75         V                 2.320010          3.378576
  76         V                 3.822494         11.933707
 Total kinetic energy from orbitals= 5.839298914137D+02
 1\1\GINC-IISERK51\SP\RHF\3-21G*\C5H6S1\GAUSSIAN\14-Jun-2025\0\\# hf/3-
 21g* pop=full geom=connectivity\\methyl_thiophene sp with HF3-21G*\\0,
 1\C,0,1.047612,1.118753,0.000006\C,0,-0.32198,1.245711,-0.000014\C,0,-
 0.973288,-0.035401,-0.000035\C,0,-0.050921,-1.062406,-0.000019\S,0,1.5
 17158,-0.486667,0.000009\H,0,1.760943,1.940722,0.000039\H,0,-0.872369,
 2.188251,-0.000043\H,0,-0.289977,-2.124154,-0.000032\C,0,-2.434149,-0.
 190037,0.00002\H,0,-2.876192,0.295725,0.906299\H,0,-2.876293,0.295821,
 -0.906143\H,0,-2.724274,-1.269408,-0.000015\\Version=EM64L-G16RevB.01\
 State=1-A\HF=-587.4057632\RMSD=4.008e-09\Dipole=-0.3167088,0.1321327,0
 .0000193\Quadrupole=0.9768847,2.877985,-3.8548697,1.1419011,0.0000544,
 0.0000335\PG=C01 [X(C5H6S1)]\\@


 THE HURRIEDER I GO, THE BEHINDER I GET.
 Job cpu time:       0 days  0 hours  0 minutes  0.9 seconds.
 Elapsed time:       0 days  0 hours  0 minutes  0.9 seconds.
 File lengths (MBytes):  RWF=      6 Int=      0 D2E=      0 Chk=      1 Scr=      1
 Normal termination of Gaussian 16 at Sat Jun 14 14:47:32 2025.
