 Entering Gaussian System, Link 0=g16
 Input=/home/gaussian/Documents/Summer_Internship/Acid_Base_adduct/Adduct/3,5 DMP - BCl3/35DMP_only_adduct_sp.com
 Output=/home/gaussian/Documents/Summer_Internship/Acid_Base_adduct/Adduct/3,5 DMP - BCl3/35DMP_only_adduct_sp.log
 Initial command:
 /usr/local/g16/l1.exe "/home/gaussian/tmp/Gau-81056.inp" -scrdir="/home/gaussian/tmp/"
 Entering Link 1 = /usr/local/g16/l1.exe PID=     81059.
  
 Copyright (c) 1988-2017, Gaussian, Inc.  All Rights Reserved.
  
 This is part of the Gaussian(R) 16 program.  It is based on
 the Gaussian(R) 09 system (copyright 2009, Gaussian, Inc.),
 the Gaussian(R) 03 system (copyright 2003, Gaussian, Inc.),
 the Gaussian(R) 98 system (copyright 1998, Gaussian, Inc.),
 the Gaussian(R) 94 system (copyright 1995, Gaussian, Inc.),
 the Gaussian 92(TM) system (copyright 1992, Gaussian, Inc.),
 the Gaussian 90(TM) system (copyright 1990, Gaussian, Inc.),
 the Gaussian 88(TM) system (copyright 1988, Gaussian, Inc.),
 the Gaussian 86(TM) system (copyright 1986, Carnegie Mellon
 University), and the Gaussian 82(TM) system (copyright 1983,
 Carnegie Mellon University). Gaussian is a federally registered
 trademark of Gaussian, Inc.
  
 This software contains proprietary and confidential information,
 including trade secrets, belonging to Gaussian, Inc.
  
 This software is provided under written license and may be
 used, copied, transmitted, or stored only in accord with that
 written license.
  
 The following legend is applicable only to US Government
 contracts under FAR:
  
                    RESTRICTED RIGHTS LEGEND
  
 Use, reproduction and disclosure by the US Government is
 subject to restrictions as set forth in subparagraphs (a)
 and (c) of the Commercial Computer Software - Restricted
 Rights clause in FAR 52.227-19.
  
 Gaussian, Inc.
 340 Quinnipiac St., Bldg. 40, Wallingford CT 06492
  
  
 ---------------------------------------------------------------
 Warning -- This program may not be used in any manner that
 competes with the business of Gaussian, Inc. or will provide
 assistance to any competitor of Gaussian, Inc.  The licensee
 of this program is prohibited from giving any competitor of
 Gaussian, Inc. access to this program.  By using this program,
 the user acknowledges that Gaussian, Inc. is engaged in the
 business of creating and licensing software in the field of
 computational chemistry and represents and warrants to the
 licensee that it is not a competitor of Gaussian, Inc. and that
 it will not use this program in any manner prohibited above.
 ---------------------------------------------------------------
  

 Cite this work as:
 Gaussian 16, Revision B.01,
 M. J. Frisch, G. W. Trucks, H. B. Schlegel, G. E. Scuseria, 
 M. A. Robb, J. R. Cheeseman, G. Scalmani, V. Barone, 
 G. A. Petersson, H. Nakatsuji, X. Li, M. Caricato, A. V. Marenich, 
 J. Bloino, B. G. Janesko, R. Gomperts, B. Mennucci, H. P. Hratchian, 
 J. V. Ortiz, A. F. Izmaylov, J. L. Sonnenberg, D. Williams-Young, 
 F. Ding, F. Lipparini, F. Egidi, J. Goings, B. Peng, A. Petrone, 
 T. Henderson, D. Ranasinghe, V. G. Zakrzewski, J. Gao, N. Rega, 
 G. Zheng, W. Liang, M. Hada, M. Ehara, K. Toyota, R. Fukuda, 
 J. Hasegawa, M. Ishida, T. Nakajima, Y. Honda, O. Kitao, H. Nakai, 
 T. Vreven, K. Throssell, J. A. Montgomery, Jr., J. E. Peralta, 
 F. Ogliaro, M. J. Bearpark, J. J. Heyd, E. N. Brothers, K. N. Kudin, 
 V. N. Staroverov, T. A. Keith, R. Kobayashi, J. Normand, 
 K. Raghavachari, A. P. Rendell, J. C. Burant, S. S. Iyengar, 
 J. Tomasi, M. Cossi, J. M. Millam, M. Klene, C. Adamo, R. Cammi, 
 J. W. Ochterski, R. L. Martin, K. Morokuma, O. Farkas, 
 J. B. Foresman, and D. J. Fox, Gaussian, Inc., Wallingford CT, 2016.
 
 ******************************************
 Gaussian 16:  EM64L-G16RevB.01 20-Dec-2017
                16-Jun-2025 
 ******************************************
 %chk=35DMP_only_adduct_sp.chk
 -------------------------------------
 # hf/3-21g pop=full geom=connectivity
 -------------------------------------
 1/38=1,57=2,172=1/1;
 2/12=2,17=6,18=5,40=1/2;
 3/5=5,11=9,25=1,30=1/1,2,3;
 4//1;
 5/5=2,38=5/2;
 6/7=3,28=1/1;
 99/5=1,9=1/99;
 -------------------
 Title Card Required
 -------------------
 Symbolic Z-matrix:
 Charge =  0 Multiplicity = 1
 C                     0.83436   1.2075   -0.00005 
 C                     2.21291   1.21059   0. 
 C                     2.85697  -0.01394   0.00012 
 C                     2.14052  -1.20433   0.00012 
 C                     0.77111  -1.11976   0.00004 
 N                     0.13594   0.06653  -0.00005 
 H                     3.9299   -0.04611   0.00023 
 H                     0.27056   2.11103  -0.00013 
 H                     0.15117  -1.98807   0.00009 
 C                     2.98625   2.51252  -0.00008 
 H                     3.61578   2.58056  -0.87984 
 H                     2.31577   3.36176   0.00022 
 H                     3.61631   2.58038   0.87932 
 C                     2.84084  -2.54644  -0.00015 
 H                     3.4621   -2.65004  -0.88234 
 H                     3.46957  -2.64662   0.87711 
 H                     2.12452  -3.35718   0.00449 
 
                          Input orientation:                          
 ---------------------------------------------------------------------
 Center     Atomic      Atomic             Coordinates (Angstroms)
 Number     Number       Type             X           Y           Z
 ---------------------------------------------------------------------
      1          6           0        0.834360    1.207501   -0.000053
      2          6           0        2.212907    1.210591    0.000002
      3          6           0        2.856970   -0.013944    0.000123
      4          6           0        2.140521   -1.204332    0.000118
      5          6           0        0.771105   -1.119761    0.000041
      6          7           0        0.135941    0.066533   -0.000049
      7          1           0        3.929899   -0.046110    0.000234
      8          1           0        0.270564    2.111029   -0.000128
      9          1           0        0.151170   -1.988071    0.000091
     10          6           0        2.986254    2.512521   -0.000075
     11          1           0        3.615781    2.580562   -0.879839
     12          1           0        2.315772    3.361759    0.000216
     13          1           0        3.616307    2.580378    0.879321
     14          6           0        2.840838   -2.546438   -0.000145
     15          1           0        3.462102   -2.650043   -0.882343
     16          1           0        3.469570   -2.646624    0.877111
     17          1           0        2.124516   -3.357176    0.004486
 ---------------------------------------------------------------------
                    Distance matrix (angstroms):
                    1          2          3          4          5
     1  C    0.000000
     2  C    1.378550   0.000000
     3  C    2.362812   1.383583   0.000000
     4  C    2.742808   2.416008   1.389361   0.000000
     5  C    2.328121   2.740316   2.360861   1.372025   0.000000
     6  N    1.337758   2.371214   2.722219   2.373487   1.345632
     7  H    3.339746   2.127759   1.073411   2.131514   3.336271
     8  H    1.065002   2.140908   3.347388   3.806358   3.269334
     9  H    3.267787   3.805548   3.349408   2.138168   1.066903
    10  C    2.516689   1.514294   2.529771   3.811858   4.254452
    11  H    3.224224   2.149185   2.842814   4.156458   4.749606
    12  H    2.614462   2.153626   3.418811   4.569453   4.740255
    13  H    3.224487   2.149197   2.842550   4.156317   4.749667
    14  C    4.256526   3.809142   2.532545   1.513834   2.513802
    15  H    4.750169   4.152531   2.844987   2.148347   3.218980
    16  H    4.750582   4.150498   2.841723   2.148417   3.222154
    17  H    4.743501   4.568624   3.422529   2.152908   2.614912
                    6          7          8          9         10
     6  N    0.000000
     7  H    3.795630   0.000000
     8  H    2.048923   4.247821   0.000000
     9  H    2.054660   4.248530   4.100838   0.000000
    10  C    3.755947   2.727097   2.745208   5.319119   0.000000
    11  H    4.382198   2.787939   3.490678   5.800880   1.083937
    12  H    3.950972   3.770806   2.397332   5.771151   1.082013
    13  H    4.382426   2.787395   3.491091   5.800944   1.083932
    14  C    3.760862   2.727214   5.319615   2.747014   5.061049
    15  H    4.384242   2.788950   5.799312   3.489866   5.258982
    16  H    4.386766   2.782713   5.799866   3.494944   5.255457
    17  H    3.959322   3.771284   5.773944   2.401783   5.932618
                   11         12         13         14         15
    11  H    0.000000
    12  H    1.753508   0.000000
    13  H    1.759160   1.753503   0.000000
    14  C    5.259328   5.931483   5.259188   0.000000
    15  H    5.232863   6.183425   5.521281   1.083963   0.000000
    16  H    5.516496   6.180685   5.229062   1.083937   1.759473
    17  H    6.185680   6.721658   6.184280   1.081866   1.753750
                   16         17
    16  H    0.000000
    17  H    1.753719   0.000000
 Stoichiometry    C7H9N
 Framework group  C1[X(C7H9N)]
 Deg. of freedom    45
 Full point group                 C1      NOp   1
 Largest Abelian subgroup         C1      NOp   1
 Largest concise Abelian subgroup C1      NOp   1
                         Standard orientation:                         
 ---------------------------------------------------------------------
 Center     Atomic      Atomic             Coordinates (Angstroms)
 Number     Number       Type             X           Y           Z
 ---------------------------------------------------------------------
      1          6           0       -1.164313    1.125940    0.000034
      2          6           0       -1.206318   -0.251970   -0.000021
      3          6           0       -0.000453   -0.930345   -0.000142
      4          6           0        1.209686   -0.247786   -0.000137
      5          6           0        1.163807    1.123471   -0.000060
      6          7           0       -0.004083    1.791871    0.000030
      7          1           0        0.001411   -2.003755   -0.000253
      8          1           0       -2.051565    1.715018    0.000109
      9          1           0        2.049272    1.718647   -0.000110
     10          6           0       -2.529561   -0.988256    0.000056
     11          1           0       -2.615346   -1.615611    0.879820
     12          1           0       -3.359533   -0.294067   -0.000235
     13          1           0       -2.615177   -1.616142   -0.879340
     14          6           0        2.531487   -0.985712    0.000126
     15          1           0        2.617512   -1.609653    0.882324
     16          1           0        2.613884   -1.617022   -0.877130
     17          1           0        3.362124   -0.292563   -0.004505
 ---------------------------------------------------------------------
 Rotational constants (GHZ):           3.7691177           1.7847403           1.2295966
 Standard basis: 3-21G (6D, 7F)
 There are    90 symmetry adapted cartesian basis functions of A   symmetry.
 There are    90 symmetry adapted basis functions of A   symmetry.
    90 basis functions,   147 primitive gaussians,    90 cartesian basis functions
    29 alpha electrons       29 beta electrons
       nuclear repulsion energy       345.8941261355 Hartrees.
 NAtoms=   17 NActive=   17 NUniq=   17 SFac= 1.00D+00 NAtFMM=   60 NAOKFM=F Big=F
 Integral buffers will be    131072 words long.
 Raffenetti 1 integral format.
 Two-electron integral symmetry is turned on.
 One-electron integrals computed using PRISM.
 NBasis=    90 RedAO= T EigKep=  2.27D-03  NBF=    90
 NBsUse=    90 1.00D-06 EigRej= -1.00D+00 NBFU=    90
 ExpMin= 1.83D-01 ExpMax= 2.43D+02 ExpMxC= 2.43D+02 IAcc=3 IRadAn=         5 AccDes= 0.00D+00
 Harris functional with IExCor=  205 and IRadAn=       5 diagonalized for initial guess.
 HarFok:  IExCor=  205 AccDes= 0.00D+00 IRadAn=         5 IDoV= 1 UseB2=F ITyADJ=14
 ICtDFT=  3500011 ScaDFX=  1.000000  1.000000  1.000000  1.000000
 FoFCou: FMM=F IPFlag=           0 FMFlag=      100000 FMFlg1=           0
         NFxFlg=           0 DoJE=T BraDBF=F KetDBF=T FulRan=T
         wScrn=  0.000000 ICntrl=       500 IOpCl=  0 I1Cent=   200000004 NGrid=           0
         NMat0=    1 NMatS0=      1 NMatT0=    0 NMatD0=    1 NMtDS0=    0 NMtDT0=    0
 Petite list used in FoFCou.
 Keep R1 ints in memory in canonical form, NReq=9230760.
 Requested convergence on RMS density matrix=1.00D-08 within 128 cycles.
 Requested convergence on MAX density matrix=1.00D-06.
 Requested convergence on             energy=1.00D-06.
 No special actions if energy rises.
 SCF Done:  E(RHF) =  -322.954272717     A.U. after   14 cycles
            NFock= 14  Conv=0.35D-08     -V/T= 2.0018

 **********************************************************************

            Population analysis using the SCF Density.

 **********************************************************************

 Orbital symmetries:
       Occupied  (A) (A) (A) (A) (A) (A) (A) (A) (A) (A) (A) (A)
                 (A) (A) (A) (A) (A) (A) (A) (A) (A) (A) (A) (A)
                 (A) (A) (A) (A) (A)
       Virtual   (A) (A) (A) (A) (A) (A) (A) (A) (A) (A) (A) (A)
                 (A) (A) (A) (A) (A) (A) (A) (A) (A) (A) (A) (A)
                 (A) (A) (A) (A) (A) (A) (A) (A) (A) (A) (A) (A)
                 (A) (A) (A) (A) (A) (A) (A) (A) (A) (A) (A) (A)
                 (A) (A) (A) (A) (A) (A) (A) (A) (A) (A) (A) (A)
                 (A)
 The electronic state is 1-A.
 Alpha  occ. eigenvalues --  -15.48560 -11.20518 -11.20458 -11.19250 -11.19243
 Alpha  occ. eigenvalues --  -11.18756 -11.17099 -11.17090  -1.26158  -1.10457
 Alpha  occ. eigenvalues --   -1.07535  -0.95810  -0.95144  -0.85351  -0.80793
 Alpha  occ. eigenvalues --   -0.71150  -0.68362  -0.59848  -0.59824  -0.58423
 Alpha  occ. eigenvalues --   -0.58046  -0.57082  -0.55313  -0.54210  -0.51521
 Alpha  occ. eigenvalues --   -0.49792  -0.39034  -0.36500  -0.33812
 Alpha virt. eigenvalues --    0.12929   0.15243   0.27106   0.29083   0.31280
 Alpha virt. eigenvalues --    0.32001   0.32019   0.32156   0.35154   0.35983
 Alpha virt. eigenvalues --    0.36294   0.41856   0.44572   0.45460   0.47555
 Alpha virt. eigenvalues --    0.53241   0.61066   0.61801   0.67171   0.76234
 Alpha virt. eigenvalues --    0.91863   0.92633   0.94267   0.94774   0.95174
 Alpha virt. eigenvalues --    0.98999   1.01917   1.03186   1.05356   1.08793
 Alpha virt. eigenvalues --    1.09434   1.11815   1.16387   1.17455   1.19448
 Alpha virt. eigenvalues --    1.20237   1.21679   1.21730   1.34029   1.34465
 Alpha virt. eigenvalues --    1.34929   1.35177   1.36137   1.36839   1.42235
 Alpha virt. eigenvalues --    1.44800   1.56033   1.56383   1.61666   1.61971
 Alpha virt. eigenvalues --    1.68748   1.74010   1.78470   1.84653   1.92947
 Alpha virt. eigenvalues --    1.97274   2.17270   2.25979   2.29364   2.31940
 Alpha virt. eigenvalues --    3.27371
     Molecular Orbital Coefficients:
                           1         2         3         4         5
                           O         O         O         O         O
     Eigenvalues --   -15.48560 -11.20518 -11.20458 -11.19250 -11.19243
   1 1   C  1S         -0.00029   0.88095   0.44449  -0.00577   0.00607
   2        2S         -0.00131   0.08768   0.04139   0.00191  -0.00208
   3        2PX         0.00099   0.00181  -0.00087   0.00001   0.00004
   4        2PY         0.00083  -0.00057   0.00010  -0.00088   0.00125
   5        2PZ        -0.00000  -0.00000   0.00000  -0.00000   0.00000
   6        3S          0.03782  -0.06341  -0.01926  -0.01821   0.02729
   7        3PX         0.03113  -0.00230   0.01082  -0.00211   0.00644
   8        3PY        -0.00680   0.01912  -0.00352   0.00935  -0.01486
   9        3PZ        -0.00000   0.00000  -0.00000   0.00000  -0.00000
  10 2   C  1S          0.00055  -0.00798  -0.00438  -0.68201   0.71323
  11        2S          0.00242  -0.00370  -0.00103  -0.06932   0.07310
  12        2PX         0.00116   0.00025   0.00028  -0.00085   0.00011
  13        2PY        -0.00017  -0.00180  -0.00107  -0.00012   0.00047
  14        2PZ        -0.00000  -0.00000  -0.00000   0.00000  -0.00000
  15        3S         -0.03007   0.02246  -0.00246   0.05915  -0.07712
  16        3PX        -0.03068  -0.00271  -0.00999   0.00495  -0.01339
  17        3PY        -0.01167   0.02291   0.00071   0.00249  -0.00792
  18        3PZ         0.00000   0.00000   0.00000  -0.00000   0.00000
  19 3   C  1S         -0.00044  -0.00371  -0.01164  -0.00231  -0.04987
  20        2S         -0.00204  -0.00110  -0.00337  -0.00030  -0.01058
  21        2PX        -0.00000   0.00106  -0.00035  -0.00190   0.00009
  22        2PY         0.00003  -0.00031  -0.00095  -0.00001  -0.00135
  23        2PZ        -0.00000  -0.00000  -0.00000   0.00000  -0.00000
  24        3S          0.03888   0.00567   0.01668   0.00097   0.05138
  25        3PX        -0.00010  -0.00845   0.00272   0.01738  -0.00057
  26        3PY         0.02361   0.00320   0.00947   0.00043   0.02124
  27        3PZ         0.00000   0.00000   0.00000  -0.00000   0.00000
  28 4   C  1S          0.00054   0.00363  -0.00759   0.71386   0.68127
  29        2S          0.00241   0.00240  -0.00304   0.07260   0.06986
  30        2PX        -0.00117   0.00002  -0.00035  -0.00086  -0.00007
  31        2PY        -0.00016   0.00086  -0.00200   0.00016   0.00048
  32        2PZ         0.00000  -0.00000   0.00000   0.00000   0.00000
  33        3S         -0.02992  -0.02011   0.01186  -0.06270  -0.07439
  34        3PX         0.03063   0.00400   0.00942   0.00551   0.01308
  35        3PY        -0.01180  -0.01830   0.01434  -0.00305  -0.00807
  36        3PZ        -0.00000   0.00000  -0.00000   0.00000   0.00000
  37 5   C  1S         -0.00031  -0.44521   0.88060   0.00543   0.00540
  38        2S         -0.00132  -0.04600   0.08537  -0.00211  -0.00211
  39        2PX        -0.00101   0.00197  -0.00036   0.00000  -0.00003
  40        2PY         0.00083   0.00053  -0.00029   0.00099   0.00125
  41        2PZ        -0.00000   0.00000  -0.00000   0.00000   0.00000
  42        3S          0.03751   0.04009  -0.05354   0.01981   0.02685
  43        3PX        -0.03074  -0.00827  -0.00719  -0.00234  -0.00626
  44        3PY        -0.00706  -0.01776   0.00862  -0.01019  -0.01465
  45        3PZ         0.00000  -0.00000   0.00000  -0.00000  -0.00000
  46 6   N  1S          0.98675   0.00009   0.00026   0.00001   0.00025
  47        2S          0.10597   0.00037   0.00119   0.00004   0.00139
  48        2PX        -0.00002  -0.00019   0.00011  -0.00039   0.00001
  49        2PY        -0.00533   0.00006   0.00008  -0.00000  -0.00005
  50        2PZ        -0.00000  -0.00000   0.00000  -0.00000  -0.00000
  51        3S         -0.09158  -0.00030  -0.00084  -0.00020  -0.01009
  52        3PX         0.00020   0.00324  -0.00099  -0.00086   0.00004
  53        3PY         0.02590   0.00094   0.00274   0.00015   0.00619
  54        3PZ         0.00000   0.00000  -0.00000   0.00000   0.00000
  55 7   H  1S          0.00070   0.00006   0.00018  -0.00001  -0.00052
  56        2S          0.00564   0.00111   0.00332   0.00004   0.00288
  57 8   H  1S          0.00108  -0.00223   0.00014   0.00055  -0.00030
  58        2S          0.00809   0.00684   0.01053  -0.00108   0.00290
  59 9   H  1S          0.00107   0.00187  -0.00120  -0.00057  -0.00027
  60        2S          0.00801   0.00078   0.01242   0.00120   0.00285
  61 10  C  1S          0.00009  -0.00298  -0.00272   0.00107  -0.00483
  62        2S          0.00020  -0.00095  -0.00074   0.00059  -0.00178
  63        2PX        -0.00087  -0.00031  -0.00050  -0.00009  -0.00039
  64        2PY        -0.00067  -0.00053  -0.00045   0.00048  -0.00037
  65        2PZ        -0.00000  -0.00000  -0.00000  -0.00000   0.00000
  66        3S         -0.01259   0.00163  -0.00301  -0.00725   0.00725
  67        3PX        -0.00371   0.00263  -0.00058  -0.00335   0.00490
  68        3PY        -0.00240  -0.00165  -0.00082  -0.00491   0.00354
  69        3PZ         0.00000   0.00000   0.00000   0.00000  -0.00000
  70 11  H  1S          0.00036  -0.00013   0.00003   0.00052  -0.00088
  71        2S          0.00020  -0.00025   0.00003  -0.00181   0.00164
  72 12  H  1S          0.00008  -0.00003   0.00002   0.00059  -0.00045
  73        2S          0.00126   0.00144   0.00025   0.00132  -0.00049
  74 13  H  1S          0.00036  -0.00013   0.00003   0.00052  -0.00088
  75        2S          0.00020  -0.00025   0.00003  -0.00181   0.00164
  76 14  C  1S          0.00009   0.00083  -0.00399  -0.00127  -0.00480
  77        2S          0.00021   0.00033  -0.00117  -0.00066  -0.00176
  78        2PX         0.00087   0.00005   0.00059  -0.00007   0.00040
  79        2PY        -0.00066   0.00015  -0.00067  -0.00050  -0.00035
  80        2PZ        -0.00000   0.00000  -0.00000   0.00000   0.00000
  81        3S         -0.01266  -0.00323  -0.00138   0.00755   0.00689
  82        3PX         0.00374   0.00252  -0.00114  -0.00354  -0.00472
  83        3PY        -0.00245   0.00082  -0.00164   0.00509   0.00333
  84        3PZ         0.00001  -0.00000   0.00001  -0.00003  -0.00002
  85 15  H  1S          0.00036   0.00013  -0.00006  -0.00055  -0.00085
  86        2S          0.00019   0.00022  -0.00013   0.00190   0.00157
  87 16  H  1S          0.00036   0.00013  -0.00006  -0.00055  -0.00085
  88        2S          0.00020   0.00022  -0.00012   0.00187   0.00155
  89 17  H  1S          0.00010   0.00004  -0.00000  -0.00061  -0.00043
  90        2S          0.00125  -0.00102   0.00107  -0.00136  -0.00043
                           6         7         8         9        10
                           O         O         O         O         O
     Eigenvalues --   -11.18756 -11.17099 -11.17090  -1.26158  -1.10457
   1 1   C  1S          0.00854  -0.00062   0.00395  -0.10163  -0.01320
   2        2S         -0.00031   0.00001  -0.00067   0.11789   0.01101
   3        2PX        -0.00041  -0.00038   0.00041   0.08584   0.05322
   4        2PY         0.00115  -0.00007   0.00055   0.00579   0.08294
   5        2PZ         0.00000   0.00000  -0.00000  -0.00000   0.00000
   6        3S         -0.00502  -0.00011   0.00318   0.08815   0.00676
   7        3PX        -0.00446  -0.00149   0.00205  -0.06713  -0.02772
   8        3PY         0.00050  -0.00022  -0.00252   0.01903   0.01513
   9        3PZ         0.00000   0.00000   0.00000   0.00000   0.00000
  10 2   C  1S          0.03367   0.00069   0.00478  -0.05819   0.10409
  11        2S         -0.00054   0.00012  -0.00105   0.05868  -0.11612
  12        2PX        -0.00203  -0.00080   0.00062   0.02614  -0.03999
  13        2PY         0.00030  -0.00001   0.00021   0.03272   0.03397
  14        2PZ         0.00000   0.00000   0.00000  -0.00000   0.00000
  15        3S          0.03040  -0.00480   0.01357   0.16462  -0.18515
  16        3PX         0.02767   0.01157  -0.01538   0.08560   0.03804
  17        3PY        -0.00110   0.00137  -0.00757   0.03397   0.01251
  18        3PZ        -0.00000  -0.00000  -0.00000  -0.00000  -0.00001
  19 3   C  1S          0.98599   0.00264   0.00725  -0.04490   0.13157
  20        2S          0.09968  -0.00004  -0.00011   0.05645  -0.14240
  21        2PX        -0.00001  -0.00111   0.00041  -0.00035   0.00002
  22        2PY         0.00127   0.00010   0.00027   0.03468  -0.04505
  23        2PZ         0.00000  -0.00000  -0.00000   0.00000  -0.00001
  24        3S         -0.09694   0.00073   0.00223  -0.02261  -0.31982
  25        3PX         0.00022   0.00692  -0.00253   0.00036   0.00084
  26        3PY        -0.02598   0.00118   0.00325  -0.04997  -0.04847
  27        3PZ        -0.00000   0.00000   0.00000  -0.00001   0.00000
  28 4   C  1S          0.03533   0.00260   0.00408  -0.05800   0.10655
  29        2S         -0.00030  -0.00077  -0.00072   0.05852  -0.11872
  30        2PX         0.00197  -0.00102   0.00004  -0.02595   0.03857
  31        2PY         0.00027   0.00015   0.00015   0.03296   0.03132
  32        2PZ         0.00000   0.00000   0.00000   0.00000  -0.00001
  33        3S          0.02977   0.01251   0.00719   0.16413  -0.19035
  34        3PX        -0.02738   0.01880   0.00429  -0.08528  -0.03692
  35        3PY        -0.00103  -0.00602  -0.00490   0.03450   0.01334
  36        3PZ        -0.00000  -0.00000  -0.00000   0.00001  -0.00001
  37 5   C  1S          0.00869   0.00306   0.00265  -0.10001  -0.00854
  38        2S         -0.00032  -0.00044  -0.00050   0.11610   0.00576
  39        2PX         0.00041  -0.00056  -0.00006  -0.08374  -0.05187
  40        2PY         0.00115   0.00040   0.00037   0.00411   0.08366
  41        2PZ         0.00000  -0.00000  -0.00000   0.00000   0.00000
  42        3S         -0.00498   0.00221   0.00240   0.08634  -0.00196
  43        3PX         0.00439  -0.00252  -0.00064   0.06593   0.02687
  44        3PY         0.00047  -0.00150  -0.00208   0.02001   0.01683
  45        3PZ        -0.00000   0.00000   0.00000  -0.00001   0.00000
  46 6   N  1S         -0.00009  -0.00001  -0.00002  -0.16833  -0.10265
  47        2S         -0.00077  -0.00014  -0.00039   0.14431   0.08937
  48        2PX        -0.00000  -0.00017   0.00006  -0.00198  -0.00286
  49        2PY         0.00008   0.00004   0.00013  -0.09565  -0.03090
  50        2PZ        -0.00000   0.00000   0.00000  -0.00001  -0.00000
  51        3S          0.00557   0.00004   0.00017   0.55482   0.35780
  52        3PX        -0.00001  -0.00011   0.00003  -0.00127  -0.00195
  53        3PY        -0.00111   0.00003   0.00004  -0.13256  -0.05946
  54        3PZ         0.00000  -0.00000  -0.00000  -0.00001  -0.00001
  55 7   H  1S         -0.00246  -0.00006  -0.00015   0.01174  -0.06077
  56        2S          0.00581   0.00064   0.00175  -0.01788  -0.01431
  57 8   H  1S         -0.00038  -0.00020   0.00018   0.02651   0.00383
  58        2S         -0.00002   0.00006   0.00050  -0.03073  -0.00902
  59 9   H  1S         -0.00038   0.00027   0.00001   0.02595   0.00190
  60        2S          0.00002   0.00030   0.00044  -0.03031  -0.00904
  61 10  C  1S         -0.00591  -0.41497   0.89613  -0.01228   0.05927
  62        2S         -0.00155  -0.04336   0.09270   0.01194  -0.05954
  63        2PX        -0.00017  -0.00007  -0.00004   0.01099  -0.02976
  64        2PY         0.00003   0.00010  -0.00009   0.00807  -0.01098
  65        2PZ        -0.00000  -0.00000  -0.00000  -0.00000   0.00000
  66        3S          0.00880   0.03812  -0.07770   0.05646  -0.12789
  67        3PX         0.00281   0.00324  -0.00510   0.00957   0.00336
  68        3PY         0.00424   0.00217  -0.00283   0.00386   0.00673
  69        3PZ         0.00000   0.00000   0.00000  -0.00000  -0.00000
  70 11  H  1S         -0.00025  -0.00025   0.00028   0.00364  -0.02850
  71        2S          0.00042  -0.00607   0.01322  -0.00392   0.00450
  72 12  H  1S         -0.00056  -0.00025   0.00022   0.00509  -0.02548
  73        2S         -0.00032  -0.00614   0.01324  -0.00380   0.00138
  74 13  H  1S         -0.00025  -0.00025   0.00028   0.00364  -0.02850
  75        2S          0.00042  -0.00607   0.01322  -0.00392   0.00450
  76 14  C  1S         -0.00589   0.89620   0.41481  -0.01224   0.06086
  77        2S         -0.00154   0.09305   0.04264   0.01185  -0.06110
  78        2PX         0.00017  -0.00004   0.00007  -0.01095   0.03040
  79        2PY         0.00003  -0.00013  -0.00000   0.00803  -0.01167
  80        2PZ         0.00000   0.00000  -0.00000  -0.00000   0.00001
  81        3S          0.00877  -0.07940  -0.03461   0.05648  -0.13220
  82        3PX        -0.00279   0.00581   0.00182  -0.00963  -0.00326
  83        3PY         0.00424  -0.00350  -0.00076   0.00402   0.00649
  84        3PZ        -0.00000  -0.00000   0.00000  -0.00002  -0.00004
  85 15  H  1S         -0.00025   0.00037   0.00005   0.00364  -0.02917
  86        2S          0.00042   0.01318   0.00615  -0.00388   0.00467
  87 16  H  1S         -0.00025   0.00037   0.00005   0.00363  -0.02919
  88        2S          0.00042   0.01318   0.00615  -0.00390   0.00461
  89 17  H  1S         -0.00056   0.00034   0.00001   0.00503  -0.02630
  90        2S         -0.00033   0.01324   0.00613  -0.00378   0.00151
                          11        12        13        14        15
                           O         O         O         O         O
     Eigenvalues --    -1.07535  -0.95810  -0.95144  -0.85351  -0.80793
   1 1   C  1S         -0.08862  -0.01516   0.10837   0.07572   0.05104
   2        2S          0.09826   0.01652  -0.11663  -0.08548  -0.05212
   3        2PX        -0.00576  -0.01940  -0.02134   0.10125  -0.01353
   4        2PY        -0.05051   0.02275  -0.01027   0.12327  -0.14536
   5        2PZ        -0.00000   0.00000  -0.00000   0.00000  -0.00001
   6        3S          0.18650   0.03649  -0.28160  -0.21535  -0.18006
   7        3PX        -0.00433  -0.01852  -0.00574   0.03293   0.01210
   8        3PY        -0.03720   0.00833   0.04732   0.05468  -0.00776
   9        3PZ         0.00000  -0.00000   0.00000  -0.00000  -0.00000
  10 2   C  1S         -0.11454   0.01088   0.00988   0.04570  -0.10102
  11        2S          0.12276  -0.01162  -0.01304  -0.04901   0.10202
  12        2PX        -0.02315  -0.13345  -0.05210   0.04820   0.06767
  13        2PY         0.02695   0.00585  -0.10048  -0.16691  -0.03121
  14        2PZ         0.00000   0.00001  -0.00000  -0.00001  -0.00001
  15        3S          0.24747  -0.03113  -0.00399  -0.13858   0.35597
  16        3PX         0.02014  -0.02346  -0.00353   0.01652   0.02603
  17        3PY        -0.01895   0.00466   0.00639  -0.06224   0.01587
  18        3PZ        -0.00001   0.00001  -0.00000  -0.00000  -0.00000
  19 3   C  1S         -0.00255   0.10504   0.00549  -0.09467   0.00138
  20        2S          0.00281  -0.11077  -0.00577   0.09707  -0.00128
  21        2PX        -0.09844   0.00150  -0.01188  -0.00104  -0.20388
  22        2PY         0.00062  -0.04244  -0.00132  -0.07878   0.00149
  23        2PZ         0.00000   0.00000  -0.00000  -0.00001   0.00001
  24        3S          0.00590  -0.27795  -0.01494   0.29599  -0.00483
  25        3PX         0.02534   0.00094  -0.01633  -0.00050  -0.08238
  26        3PY         0.00055  -0.03216  -0.00137  -0.02541   0.00033
  27        3PZ         0.00001  -0.00001   0.00001  -0.00000   0.00000
  28 4   C  1S          0.11239   0.01092  -0.00906   0.04625   0.10080
  29        2S         -0.12043  -0.01180   0.01223  -0.04972  -0.10171
  30        2PX        -0.02490   0.13558  -0.04127  -0.04675   0.06883
  31        2PY        -0.03040  -0.00264   0.10507  -0.16526   0.03370
  32        2PZ        -0.00001   0.00001  -0.00000  -0.00001  -0.00000
  33        3S         -0.24310  -0.02958   0.00158  -0.14090  -0.35577
  34        3PX         0.02115   0.02374  -0.00196  -0.01625   0.02651
  35        3PY         0.01831   0.00521  -0.00505  -0.06231  -0.01445
  36        3PZ        -0.00001   0.00001  -0.00000  -0.00001  -0.00001
  37 5   C  1S          0.09034  -0.00617  -0.11114   0.07259  -0.05212
  38        2S         -0.10008   0.00683   0.11950  -0.08227   0.05296
  39        2PX        -0.00480   0.02130  -0.01942  -0.10009  -0.01289
  40        2PY         0.05014   0.02156   0.00987   0.12540   0.14452
  41        2PZ        -0.00000   0.00000  -0.00000   0.00001   0.00001
  42        3S         -0.18973   0.01338   0.28906  -0.20490   0.18464
  43        3PX        -0.00536   0.01863  -0.00397  -0.03238   0.01220
  44        3PY         0.03691   0.01229  -0.04712   0.05340   0.00728
  45        3PZ         0.00001  -0.00001   0.00000   0.00000  -0.00000
  46 6   N  1S          0.00143  -0.01981  -0.00101  -0.08743  -0.00008
  47        2S         -0.00112   0.01773   0.00068   0.08055  -0.00014
  48        2PX        -0.07266  -0.00635   0.14995   0.00250   0.16782
  49        2PY         0.00032   0.00843   0.00032   0.00644  -0.00019
  50        2PZ         0.00000   0.00000  -0.00001   0.00000  -0.00001
  51        3S         -0.00519   0.07109   0.00398   0.33065   0.00056
  52        3PX        -0.05351  -0.00475   0.11191   0.00214   0.13686
  53        3PY         0.00101   0.00051  -0.00045  -0.02079  -0.00046
  54        3PZ        -0.00000   0.00000  -0.00001  -0.00000  -0.00000
  55 7   H  1S          0.00121  -0.05006  -0.00307   0.10811  -0.00201
  56        2S          0.00019  -0.01384  -0.00095   0.05082  -0.00116
  57 8   H  1S          0.04467   0.02133  -0.06784  -0.06763  -0.07413
  58        2S          0.01167   0.00649  -0.02537  -0.02664  -0.04399
  59 9   H  1S         -0.04509   0.01569   0.07002  -0.06362   0.07514
  60        2S         -0.01128   0.00446   0.02589  -0.02458   0.04459
  61 10  C  1S         -0.08578  -0.12454  -0.11084  -0.03509   0.05740
  62        2S          0.08270   0.11747   0.10291   0.03200  -0.05249
  63        2PX         0.03114  -0.01222  -0.00508  -0.00912   0.08518
  64        2PY         0.02256   0.00540  -0.01383  -0.04853   0.02686
  65        2PZ        -0.00000   0.00000  -0.00000  -0.00000  -0.00001
  66        3S          0.22799   0.38329   0.34766   0.12237  -0.20916
  67        3PX         0.00650   0.00100   0.00967   0.00122   0.04145
  68        3PY         0.00532   0.00495  -0.00512  -0.02472   0.00406
  69        3PZ         0.00001  -0.00000   0.00000  -0.00000  -0.00000
  70 11  H  1S          0.03960   0.07119   0.06812   0.03714  -0.04950
  71        2S         -0.00488   0.00913   0.01081   0.01570  -0.02345
  72 12  H  1S          0.04216   0.07888   0.06173   0.00917  -0.06553
  73        2S         -0.00072   0.01443   0.01173  -0.00222  -0.02663
  74 13  H  1S          0.03960   0.07118   0.06813   0.03715  -0.04950
  75        2S         -0.00487   0.00913   0.01081   0.01571  -0.02344
  76 14  C  1S          0.08418  -0.13179   0.10250  -0.03489  -0.05760
  77        2S         -0.08109   0.12421  -0.09508   0.03182   0.05268
  78        2PX         0.03036   0.01214  -0.00366   0.00934   0.08571
  79        2PY        -0.02257   0.00441   0.01461  -0.04801  -0.02618
  80        2PZ         0.00001   0.00000  -0.00000   0.00000   0.00001
  81        3S         -0.22442   0.40576  -0.32169   0.12189   0.20992
  82        3PX         0.00657  -0.00189   0.00988  -0.00116   0.04168
  83        3PY        -0.00561   0.00443   0.00577  -0.02428  -0.00366
  84        3PZ        -0.00003   0.00002  -0.00003   0.00000  -0.00002
  85 15  H  1S         -0.03877   0.07563  -0.06341   0.03679   0.04939
  86        2S          0.00485   0.00976  -0.01018   0.01560   0.02334
  87 16  H  1S         -0.03876   0.07560  -0.06345   0.03696   0.04934
  88        2S          0.00479   0.00976  -0.01024   0.01570   0.02328
  89 17  H  1S         -0.04150   0.08272  -0.05612   0.00941   0.06618
  90        2S          0.00070   0.01514  -0.01056  -0.00206   0.02703
                          16        17        18        19        20
                           O         O         O         O         O
     Eigenvalues --    -0.71150  -0.68362  -0.59848  -0.59824  -0.58423
   1 1   C  1S          0.04342  -0.00059  -0.03076  -0.00180  -0.01493
   2        2S         -0.04183   0.00266   0.03261   0.00190   0.01957
   3        2PX         0.16779  -0.13819  -0.06892  -0.00426   0.20783
   4        2PY        -0.11957  -0.17411   0.04186   0.00262  -0.14393
   5        2PZ        -0.00001  -0.00000  -0.00506   0.08640   0.00015
   6        3S         -0.17596  -0.01362   0.10287   0.00602   0.00149
   7        3PX         0.11607  -0.06121  -0.09712  -0.00587   0.17055
   8        3PY        -0.08331  -0.04281   0.02928   0.00188  -0.11782
   9        3PZ        -0.00001   0.00000  -0.00457   0.07823   0.00014
  10 2   C  1S         -0.01582   0.00336   0.05546   0.00325  -0.00158
  11        2S          0.01993  -0.00427  -0.05339  -0.00313   0.00614
  12        2PX         0.06855  -0.10949   0.18860   0.01110   0.10818
  13        2PY         0.05000   0.18583   0.05684   0.00317   0.15527
  14        2PZ         0.00001   0.00002  -0.00728   0.12428   0.00031
  15        3S          0.04150  -0.00145  -0.20350  -0.01197  -0.02874
  16        3PX         0.04864  -0.07804   0.20785   0.01218   0.08444
  17        3PY         0.03187   0.15317   0.06577   0.00381   0.11960
  18        3PZ         0.00000   0.00001  -0.00586   0.09986   0.00024
  19 3   C  1S          0.04455  -0.00023  -0.04893  -0.00289  -0.00163
  20        2S         -0.04200   0.00009   0.05511   0.00326   0.00175
  21        2PX         0.00090   0.21377  -0.00163  -0.00013   0.02435
  22        2PY         0.18398  -0.00048   0.09267   0.00556   0.00178
  23        2PZ         0.00003  -0.00001  -0.00603   0.10256   0.00008
  24        3S         -0.17649   0.00191   0.10018   0.00596   0.00391
  25        3PX         0.00035   0.07353  -0.00037  -0.00013  -0.00129
  26        3PY         0.12614  -0.00024   0.01194   0.00083  -0.00055
  27        3PZ         0.00002  -0.00001  -0.00566   0.09659   0.00007
  28 4   C  1S         -0.01614  -0.00282   0.05518   0.00323   0.00471
  29        2S          0.02022   0.00346  -0.05299  -0.00312  -0.00925
  30        2PX        -0.06940  -0.10958  -0.19149  -0.01132   0.09950
  31        2PY         0.04768  -0.18624   0.06552   0.00385  -0.15225
  32        2PZ         0.00002  -0.00001  -0.00740   0.12485  -0.00014
  33        3S          0.04280  -0.00036  -0.20431  -0.01186   0.01689
  34        3PX        -0.04923  -0.07833  -0.21009  -0.01233   0.07341
  35        3PY         0.03064  -0.15316   0.07204   0.00422  -0.11610
  36        3PZ         0.00002  -0.00000  -0.00595   0.10024  -0.00010
  37 5   C  1S          0.04391   0.00033  -0.03141  -0.00185   0.01280
  38        2S         -0.04230  -0.00293   0.03343   0.00198  -0.01720
  39        2PX        -0.16590  -0.13762   0.05586   0.00322   0.21122
  40        2PY        -0.11923   0.17427   0.03388   0.00201   0.14774
  41        2PZ         0.00002   0.00002  -0.00513   0.08679  -0.00005
  42        3S         -0.17741   0.01702   0.10206   0.00600   0.00600
  43        3PX        -0.11476  -0.06132   0.08677   0.00499   0.17657
  44        3PY        -0.08282   0.04282   0.02282   0.00141   0.11858
  45        3PZ         0.00001   0.00001  -0.00464   0.07857  -0.00004
  46 6   N  1S         -0.00007  -0.00018   0.03993   0.00233   0.00184
  47        2S         -0.00071  -0.00012  -0.04051  -0.00236  -0.00165
  48        2PX        -0.00039   0.22806   0.00317   0.00029  -0.11421
  49        2PY        -0.11892   0.00024  -0.00194  -0.00001  -0.00247
  50        2PZ        -0.00000  -0.00001  -0.00484   0.08226   0.00007
  51        3S          0.00907   0.00115  -0.12876  -0.00756  -0.00684
  52        3PX        -0.00026   0.19354   0.00291   0.00024  -0.10527
  53        3PY        -0.09516  -0.00023  -0.01593  -0.00084  -0.00221
  54        3PZ         0.00000  -0.00001  -0.00469   0.07969   0.00007
  55 7   H  1S         -0.14532   0.00075  -0.01038  -0.00069   0.00057
  56        2S         -0.08506   0.00053  -0.02423  -0.00149  -0.00015
  57 8   H  1S         -0.15293   0.01517   0.08983   0.00545  -0.15524
  58        2S         -0.08066   0.00380   0.05435   0.00331  -0.10852
  59 9   H  1S         -0.15217  -0.01387   0.08018   0.00468   0.16107
  60        2S         -0.08060  -0.00282   0.04798   0.00279   0.11281
  61 10  C  1S         -0.01804   0.00049  -0.00629  -0.00036  -0.00561
  62        2S          0.01369  -0.00051  -0.00086  -0.00006   0.00128
  63        2PX        -0.04010  -0.05286  -0.20764  -0.01211  -0.13145
  64        2PY        -0.02494   0.09319  -0.09173  -0.00540  -0.05186
  65        2PZ         0.00001   0.00001  -0.01268   0.21813   0.00091
  66        3S          0.07820  -0.00013   0.09246   0.00539   0.05213
  67        3PX        -0.02408  -0.02913  -0.12366  -0.00720  -0.08764
  68        3PY        -0.01342   0.05895  -0.04152  -0.00246  -0.03609
  69        3PZ         0.00001   0.00000  -0.01020   0.17556   0.00075
  70 11  H  1S          0.02277  -0.03203   0.04259   0.12516   0.03242
  71        2S          0.01076  -0.02375   0.04277   0.10677   0.02917
  72 12  H  1S          0.01794   0.06362   0.07524   0.00433   0.04600
  73        2S          0.00366   0.05196   0.06859   0.00396   0.03333
  74 13  H  1S          0.02276  -0.03208   0.05680  -0.11929   0.03138
  75        2S          0.01076  -0.02379   0.05485  -0.10100   0.02828
  76 14  C  1S         -0.01786  -0.00043  -0.00674  -0.00040   0.00556
  77        2S          0.01353   0.00042  -0.00062  -0.00003  -0.00157
  78        2PX         0.03911  -0.05294   0.21292   0.01250  -0.11910
  79        2PY        -0.02531  -0.09352  -0.09320  -0.00546   0.05037
  80        2PZ         0.00008  -0.00000  -0.01304   0.22002  -0.00069
  81        3S          0.07749   0.00010   0.09545   0.00559  -0.04813
  82        3PX         0.02346  -0.02946   0.12713   0.00748  -0.07981
  83        3PY        -0.01363  -0.05909  -0.04246  -0.00251   0.03674
  84        3PZ         0.00003  -0.00000  -0.01050   0.17711  -0.00054
  85 15  H  1S          0.02272   0.03191   0.04344   0.12664  -0.03109
  86        2S          0.01076   0.02374   0.04352   0.10800  -0.02755
  87 16  H  1S          0.02264   0.03242   0.05801  -0.12000  -0.03026
  88        2S          0.01068   0.02414   0.05588  -0.10160  -0.02681
  89 17  H  1S          0.01728  -0.06377   0.07762   0.00391  -0.03999
  90        2S          0.00328  -0.05185   0.07013   0.00358  -0.02790
                          21        22        23        24        25
                           O         O         O         O         O
     Eigenvalues --    -0.58046  -0.57082  -0.55313  -0.54210  -0.51521
   1 1   C  1S          0.00005   0.00692   0.03902   0.02033   0.00001
   2        2S         -0.00006  -0.01050  -0.04515  -0.02216  -0.00001
   3        2PX        -0.00044  -0.06988  -0.03149   0.09150  -0.00001
   4        2PY         0.00029   0.09002   0.08533   0.08797   0.00002
   5        2PZ         0.03469  -0.00001  -0.00004   0.00002   0.17857
   6        3S         -0.00002   0.01182  -0.10839  -0.06725   0.00001
   7        3PX        -0.00036  -0.04361  -0.01461   0.06227  -0.00001
   8        3PY         0.00020   0.08508   0.08090   0.02062   0.00001
   9        3PZ         0.03111  -0.00001  -0.00004   0.00002   0.18235
  10 2   C  1S         -0.00000  -0.02316  -0.02040  -0.01004  -0.00001
  11        2S         -0.00002   0.02359   0.02156   0.01108   0.00000
  12        2PX        -0.00054   0.05523   0.03714  -0.01064  -0.00001
  13        2PY        -0.00037  -0.09998  -0.10049  -0.09910  -0.00003
  14        2PZ         0.07487   0.00001  -0.00003   0.00000   0.10288
  15        3S          0.00020   0.07621   0.06102   0.02783   0.00006
  16        3PX        -0.00036  -0.00424  -0.02723  -0.02085  -0.00000
  17        3PY        -0.00038  -0.08228  -0.07860  -0.09639  -0.00008
  18        3PZ         0.05865   0.00001  -0.00003   0.00001   0.10955
  19 3   C  1S          0.00004   0.01615  -0.02329  -0.00027   0.00000
  20        2S         -0.00005  -0.01195   0.02297   0.00038  -0.00000
  21        2PX        -0.00003  -0.00194  -0.00151  -0.07841   0.00003
  22        2PY        -0.00034   0.24405   0.18886   0.00216   0.00007
  23        2PZ         0.00089  -0.00003  -0.00002   0.00002   0.10388
  24        3S         -0.00009  -0.07141   0.10390   0.00062  -0.00001
  25        3PX         0.00018  -0.00136  -0.00106  -0.03586   0.00010
  26        3PY        -0.00031   0.24923   0.20949   0.00219   0.00009
  27        3PZ         0.00086  -0.00005  -0.00000  -0.00000   0.09497
  28 4   C  1S         -0.00001  -0.02336  -0.02095   0.00967  -0.00000
  29        2S          0.00005   0.02355   0.02193  -0.01055   0.00002
  30        2PX        -0.00018  -0.04989  -0.03253  -0.01234  -0.00004
  31        2PY         0.00059  -0.10247  -0.10227   0.09760  -0.00003
  32        2PZ        -0.07402  -0.00014  -0.00009   0.00004   0.10291
  33        3S         -0.00022   0.07842   0.06418  -0.02682  -0.00010
  34        3PX        -0.00019   0.00848   0.03135  -0.02137  -0.00001
  35        3PY         0.00048  -0.08474  -0.08091   0.09511  -0.00004
  36        3PZ        -0.05800  -0.00011  -0.00008   0.00003   0.10951
  37 5   C  1S         -0.00004   0.00710   0.03924  -0.01979   0.00001
  38        2S          0.00005  -0.01078  -0.04545   0.02184  -0.00002
  39        2PX        -0.00075   0.06913   0.02564   0.09240  -0.00002
  40        2PY        -0.00064   0.09160   0.08569  -0.08558   0.00000
  41        2PZ        -0.03443  -0.00009  -0.00008   0.00003   0.17686
  42        3S         -0.00006   0.01186  -0.10907   0.06431  -0.00002
  43        3PX        -0.00057   0.04285   0.00931   0.06363   0.00001
  44        3PY        -0.00058   0.08553   0.07930  -0.01820  -0.00006
  45        3PZ        -0.03080  -0.00007  -0.00010   0.00006   0.18077
  46 6   N  1S         -0.00000  -0.01219  -0.04276  -0.00030  -0.00001
  47        2S         -0.00001   0.01606   0.04278   0.00046   0.00001
  48        2PX         0.00029   0.00059   0.00301  -0.12393   0.00002
  49        2PY        -0.00019   0.11784   0.14574   0.00168   0.00002
  50        2PZ         0.00054  -0.00004  -0.00007   0.00005   0.22551
  51        3S          0.00004   0.02748   0.16530   0.00100   0.00007
  52        3PX         0.00030   0.00036   0.00258  -0.11955   0.00004
  53        3PY        -0.00017   0.11301   0.14189   0.00183   0.00002
  54        3PZ         0.00054  -0.00005  -0.00006   0.00004   0.24048
  55 7   H  1S          0.00021  -0.18772  -0.12391  -0.00148  -0.00006
  56        2S          0.00018  -0.13267  -0.09966  -0.00125  -0.00002
  57 8   H  1S          0.00031   0.06183   0.01018  -0.03913   0.00001
  58        2S          0.00022   0.04117   0.01575  -0.01527   0.00001
  59 9   H  1S         -0.00061   0.06197   0.00691   0.03958  -0.00002
  60        2S         -0.00041   0.04165   0.01385   0.01565   0.00001
  61 10  C  1S          0.00002  -0.00221  -0.00233  -0.00249  -0.00000
  62        2S         -0.00000   0.00333   0.00399   0.00396   0.00000
  63        2PX         0.00047   0.11255  -0.05827  -0.05944   0.00002
  64        2PY         0.00031  -0.13795   0.19035   0.23947   0.00001
  65        2PZ         0.25990   0.00017   0.00008  -0.00002  -0.14243
  66        3S         -0.00019  -0.01412  -0.01771  -0.00544  -0.00001
  67        3PX         0.00030   0.07811  -0.07041  -0.07206   0.00000
  68        3PY         0.00023  -0.12139   0.16303   0.21298   0.00002
  69        3PZ         0.21803   0.00015   0.00007  -0.00003  -0.13827
  70 11  H  1S          0.14939   0.05234  -0.07639  -0.09712  -0.09095
  71        2S          0.12913   0.04024  -0.07373  -0.09182  -0.08436
  72 12  H  1S         -0.00016  -0.12273   0.12783   0.15252   0.00003
  73        2S         -0.00013  -0.10704   0.11357   0.13199   0.00002
  74 13  H  1S         -0.14966   0.05219  -0.07656  -0.09719   0.09090
  75        2S         -0.12936   0.04011  -0.07388  -0.09189   0.08431
  76 14  C  1S         -0.00001  -0.00221  -0.00251   0.00245   0.00000
  77        2S         -0.00000   0.00346   0.00429  -0.00392   0.00000
  78        2PX         0.00042  -0.11762   0.05569  -0.05812   0.00006
  79        2PY        -0.00012  -0.13570   0.19524  -0.23680   0.00004
  80        2PZ        -0.25841  -0.00037  -0.00016   0.00007  -0.14211
  81        3S          0.00015  -0.01532  -0.01829   0.00540  -0.00002
  82        3PX         0.00026  -0.08149   0.06938  -0.07073   0.00007
  83        3PY        -0.00007  -0.11999   0.16678  -0.21052   0.00005
  84        3PZ        -0.21677  -0.00031  -0.00014   0.00008  -0.13794
  85 15  H  1S         -0.14903   0.05053  -0.07806   0.09550  -0.09100
  86        2S         -0.12880   0.03853  -0.07541   0.09025  -0.08445
  87 16  H  1S          0.14836   0.05186  -0.07904   0.09679   0.09046
  88        2S          0.12825   0.03966  -0.07632   0.09143   0.08397
  89 17  H  1S          0.00095  -0.12439   0.12866  -0.15023   0.00054
  90        2S          0.00079  -0.10853   0.11380  -0.12981   0.00049
                          26        27        28        29        30
                           O         O         O         O         V
     Eigenvalues --    -0.49792  -0.39034  -0.36500  -0.33812   0.12929
   1 1   C  1S         -0.00175   0.01944   0.00001   0.00000  -0.00001
   2        2S          0.00210  -0.02168  -0.00001  -0.00000   0.00001
   3        2PX        -0.12462  -0.05059  -0.00002  -0.00001  -0.00001
   4        2PY         0.00415  -0.16384  -0.00004   0.00002  -0.00001
   5        2PZ         0.00001   0.00002  -0.09514  -0.23945  -0.14142
   6        3S         -0.00816  -0.11097  -0.00001  -0.00000   0.00007
   7        3PX        -0.15748   0.02557  -0.00001  -0.00001  -0.00003
   8        3PY         0.04389   0.02184   0.00000   0.00003  -0.00004
   9        3PZ         0.00001   0.00004  -0.13730  -0.27950  -0.24345
  10 2   C  1S          0.00479  -0.02106  -0.00001  -0.00000  -0.00000
  11        2S         -0.00122   0.01703   0.00000  -0.00000   0.00000
  12        2PX         0.23408   0.01436   0.00002  -0.00002  -0.00000
  13        2PY        -0.01398   0.16415   0.00003   0.00001   0.00000
  14        2PZ        -0.00002  -0.00003   0.15597  -0.22279  -0.13904
  15        3S         -0.03128   0.19725   0.00007   0.00003   0.00010
  16        3PX         0.25083  -0.01755   0.00001  -0.00001  -0.00004
  17        3PY         0.04571   0.22463   0.00001   0.00001  -0.00006
  18        3PZ        -0.00001  -0.00003   0.19940  -0.27475  -0.29551
  19 3   C  1S          0.00047   0.00405   0.00000  -0.00000   0.00000
  20        2S         -0.00036  -0.00624  -0.00001   0.00000  -0.00003
  21        2PX        -0.24436   0.00069   0.00001   0.00002  -0.00002
  22        2PY        -0.00438  -0.05029  -0.00003   0.00002  -0.00008
  23        2PZ         0.00000  -0.00008   0.29020  -0.00659   0.26860
  24        3S         -0.00205   0.03423   0.00005  -0.00005   0.00037
  25        3PX        -0.18664   0.00020   0.00009   0.00004   0.00024
  26        3PY        -0.00511  -0.11627  -0.00002   0.00002  -0.00017
  27        3PZ        -0.00002  -0.00009   0.33118  -0.00807   0.61025
  28 4   C  1S         -0.00439  -0.02060   0.00000   0.00001  -0.00001
  29        2S          0.00102   0.01686   0.00000   0.00000  -0.00000
  30        2PX         0.23702  -0.01400  -0.00001  -0.00002   0.00000
  31        2PY         0.01762   0.16199   0.00005  -0.00001  -0.00002
  32        2PZ        -0.00001  -0.00004   0.15945   0.22034  -0.13332
  33        3S          0.02928   0.19658  -0.00004  -0.00011   0.00021
  34        3PX         0.25305   0.01724   0.00007  -0.00004   0.00031
  35        3PY        -0.04233   0.22226   0.00014  -0.00009   0.00065
  36        3PZ         0.00001  -0.00005   0.20339   0.27142  -0.28260
  37 5   C  1S          0.00124   0.01975   0.00000   0.00000  -0.00002
  38        2S         -0.00163  -0.02150  -0.00000  -0.00001   0.00003
  39        2PX        -0.12649   0.05314  -0.00000   0.00001   0.00001
  40        2PY        -0.00909  -0.16277  -0.00006  -0.00002  -0.00002
  41        2PZ         0.00002   0.00002  -0.08391   0.24557  -0.14202
  42        3S          0.00980  -0.11581  -0.00007   0.00004  -0.00027
  43        3PX        -0.16028  -0.02188  -0.00003   0.00003  -0.00008
  44        3PY        -0.04816   0.02381  -0.00000  -0.00010   0.00033
  45        3PZ         0.00001   0.00005  -0.12464   0.28726  -0.24312
  46 6   N  1S         -0.00004  -0.06994  -0.00002  -0.00000   0.00001
  47        2S         -0.00025   0.06947   0.00002  -0.00000  -0.00000
  48        2PX         0.14251  -0.00035  -0.00001  -0.00000  -0.00000
  49        2PY        -0.00196   0.40531   0.00012   0.00000  -0.00000
  50        2PZ         0.00001   0.00009  -0.24813   0.00199   0.26327
  51        3S          0.00091   0.26095   0.00007   0.00003  -0.00008
  52        3PX         0.12216  -0.00067  -0.00001   0.00002  -0.00006
  53        3PY        -0.00235   0.49352   0.00015   0.00001  -0.00003
  54        3PZ         0.00001   0.00010  -0.30088   0.00252   0.48608
  55 7   H  1S          0.00278   0.04922   0.00001  -0.00001  -0.00000
  56        2S          0.00231   0.03984   0.00005   0.00001  -0.00017
  57 8   H  1S          0.09321  -0.08664  -0.00002  -0.00000  -0.00001
  58        2S          0.06465  -0.10787  -0.00002  -0.00001  -0.00004
  59 9   H  1S         -0.09566  -0.08445  -0.00003  -0.00001   0.00002
  60        2S         -0.06692  -0.10580  -0.00003   0.00003  -0.00011
  61 10  C  1S          0.01633   0.01023   0.00000  -0.00000   0.00001
  62        2S         -0.02015  -0.00812  -0.00000   0.00000  -0.00000
  63        2PX        -0.19917  -0.05301  -0.00002   0.00002  -0.00001
  64        2PY        -0.04377  -0.05434  -0.00001  -0.00000  -0.00002
  65        2PZ         0.00003   0.00002  -0.05627   0.06494  -0.01392
  66        3S         -0.00487  -0.05534  -0.00003   0.00001  -0.00008
  67        3PX        -0.13838  -0.04102  -0.00002   0.00002   0.00000
  68        3PY        -0.01102  -0.07509  -0.00003  -0.00000  -0.00015
  69        3PZ         0.00003   0.00002  -0.07282   0.06388  -0.13416
  70 11  H  1S          0.01345   0.02276  -0.04448   0.05745   0.02945
  71        2S          0.02339   0.03246  -0.04474   0.07834   0.19708
  72 12  H  1S          0.08642  -0.01136   0.00002  -0.00003  -0.00000
  73        2S          0.10064  -0.00536   0.00003  -0.00003   0.00007
  74 13  H  1S          0.01340   0.02275   0.04448  -0.05743  -0.02945
  75        2S          0.02334   0.03246   0.04473  -0.07832  -0.19713
  76 14  C  1S         -0.01625   0.01016   0.00000   0.00000   0.00000
  77        2S          0.02009  -0.00804  -0.00000  -0.00000  -0.00001
  78        2PX        -0.19982   0.05233   0.00000   0.00003  -0.00005
  79        2PY         0.04293  -0.05386  -0.00005   0.00002  -0.00017
  80        2PZ        -0.00016   0.00003  -0.05773  -0.06385  -0.01426
  81        3S          0.00459  -0.05508  -0.00001   0.00001   0.00004
  82        3PX        -0.13931   0.04030  -0.00005   0.00010  -0.00069
  83        3PY         0.00970  -0.07451  -0.00018   0.00013  -0.00145
  84        3PZ        -0.00015   0.00007  -0.07398  -0.06222  -0.13257
  85 15  H  1S         -0.01316   0.02241  -0.04578  -0.05679   0.02802
  86        2S         -0.02306   0.03197  -0.04652  -0.07811   0.19221
  87 16  H  1S         -0.01267   0.02256   0.04554   0.05647  -0.02793
  88        2S         -0.02255   0.03222   0.04615   0.07776  -0.19280
  89 17  H  1S         -0.08756  -0.01121   0.00024   0.00031  -0.00011
  90        2S         -0.10170  -0.00499   0.00035   0.00030   0.00054
                          31        32        33        34        35
                           V         V         V         V         V
     Eigenvalues --     0.15243   0.27106   0.29083   0.31280   0.32001
   1 1   C  1S          0.00002   0.04889  -0.01678   0.01598  -0.01077
   2        2S         -0.00002  -0.03637   0.01011  -0.00449  -0.00754
   3        2PX        -0.00001   0.05498  -0.06282   0.04113  -0.09719
   4        2PY        -0.00001  -0.04143   0.03339  -0.03481   0.08411
   5        2PZ         0.23780  -0.00037  -0.00029  -0.00160  -0.04416
   6        3S         -0.00000  -0.41888   0.28428  -0.26500   0.32235
   7        3PX        -0.00000   0.33558  -0.25133   0.28835  -0.45027
   8        3PY        -0.00005  -0.28302   0.27065  -0.00303   0.31644
   9        3PZ         0.51211  -0.00088  -0.00067  -0.00363  -0.09794
  10 2   C  1S         -0.00001   0.00894  -0.01540   0.01661  -0.01234
  11        2S          0.00001   0.00724   0.00765   0.01179  -0.01581
  12        2PX         0.00001   0.04710   0.01601   0.05566  -0.03976
  13        2PY         0.00001   0.02128  -0.01305   0.03865  -0.01196
  14        2PZ        -0.24129   0.00029   0.00025   0.00120   0.02997
  15        3S          0.00016  -0.37308   0.43840  -0.23022   0.31882
  16        3PX        -0.00001  -0.15446   0.21316   0.17776  -0.02657
  17        3PY        -0.00017  -0.05552  -0.09311   0.20891  -0.08322
  18        3PZ        -0.51769   0.00057   0.00051   0.00203   0.05002
  19 3   C  1S          0.00002   0.06233   0.00015   0.04575   0.00036
  20        2S         -0.00002  -0.05402   0.00013  -0.01288   0.00020
  21        2PX        -0.00002  -0.00033  -0.04115  -0.00174  -0.06696
  22        2PY         0.00005   0.11556   0.00077   0.06086   0.00587
  23        2PZ        -0.00059  -0.00007  -0.00010  -0.00055  -0.01309
  24        3S          0.00004  -0.47942  -0.00641  -0.50599  -0.02038
  25        3PX         0.00036  -0.00226   0.36659  -0.00500  -0.01160
  26        3PY         0.00029   0.72396   0.00240   0.25115   0.02446
  27        3PZ        -0.00092  -0.00008  -0.00029  -0.00181  -0.05575
  28 4   C  1S          0.00002   0.00896   0.01570   0.01714   0.01311
  29        2S          0.00002   0.00718  -0.00778   0.01239   0.01379
  30        2PX        -0.00003  -0.04707   0.01565  -0.05793  -0.03992
  31        2PY        -0.00000   0.02087   0.01357   0.03867   0.01461
  32        2PZ         0.24464   0.00000   0.00007   0.00085   0.02957
  33        3S         -0.00052  -0.37293  -0.43970  -0.24097  -0.32199
  34        3PX         0.00032   0.15391   0.21029  -0.18342  -0.03804
  35        3PY         0.00034  -0.05678   0.09460   0.20990   0.09008
  36        3PZ         0.52601  -0.00047  -0.00008   0.00071   0.04873
  37 5   C  1S          0.00001   0.04893   0.01660   0.01644   0.00897
  38        2S          0.00001  -0.03641  -0.01015  -0.00399   0.00812
  39        2PX        -0.00006  -0.05459  -0.06244  -0.04651  -0.09584
  40        2PY        -0.00007  -0.04237  -0.03259  -0.03877  -0.07188
  41        2PZ        -0.23696  -0.00016  -0.00013  -0.00135  -0.04358
  42        3S         -0.00032  -0.41661  -0.27910  -0.28141  -0.29408
  43        3PX        -0.00025  -0.33146  -0.24848  -0.30744  -0.42473
  44        3PY        -0.00011  -0.28724  -0.26874  -0.01916  -0.28111
  45        3PZ        -0.51335  -0.00021  -0.00026  -0.00290  -0.09642
  46 6   N  1S         -0.00001  -0.00929   0.00018   0.02477   0.00114
  47        2S          0.00001   0.01300  -0.00019  -0.00733  -0.00080
  48        2PX         0.00001   0.00021   0.03329  -0.00120  -0.02451
  49        2PY         0.00002   0.01359  -0.00005   0.05686  -0.00049
  50        2PZ        -0.00317   0.00035   0.00027   0.00184   0.05308
  51        3S          0.00003   0.01258  -0.00121  -0.30940  -0.00662
  52        3PX         0.00001   0.00057   0.11205  -0.00195  -0.04034
  53        3PY         0.00004   0.12075  -0.00096   0.17757  -0.00553
  54        3PZ        -0.00661   0.00068   0.00054   0.00365   0.10598
  55 7   H  1S         -0.00001   0.00334   0.00034   0.06904   0.00082
  56        2S          0.00029   1.06562   0.00533   0.65088   0.03945
  57 8   H  1S          0.00001   0.01362   0.02269   0.02799  -0.01055
  58        2S          0.00004   0.70395  -0.45534   0.43148  -0.76606
  59 9   H  1S         -0.00001   0.01376  -0.02241   0.02929   0.01099
  60        2S          0.00030   0.70247   0.44977   0.46795   0.70789
  61 10  C  1S         -0.00000   0.05721  -0.10042  -0.10271   0.04804
  62        2S          0.00000  -0.00698   0.02554   0.02685  -0.01474
  63        2PX        -0.00000   0.10058  -0.09746   0.02326  -0.08817
  64        2PY         0.00001   0.02686  -0.02368  -0.05959   0.13816
  65        2PZ         0.00121   0.00011   0.00011   0.00124   0.03916
  66        3S         -0.00005  -0.94496   1.44560   1.41569  -0.63492
  67        3PX        -0.00008   0.45203  -0.49643   0.17983  -0.42831
  68        3PY         0.00007   0.04122  -0.07957  -0.37089   0.67866
  69        3PZ        -0.03399   0.00061   0.00053   0.00619   0.19125
  70 11  H  1S          0.04891  -0.00508   0.00228  -0.01277   0.00204
  71        2S          0.15737   0.39485  -0.64579  -0.80364   0.50526
  72 12  H  1S         -0.00003   0.01449  -0.01018   0.02904  -0.03810
  73        2S         -0.00016   0.69213  -0.90029  -0.09632  -0.70887
  74 13  H  1S         -0.04888  -0.00493   0.00241  -0.01190   0.02694
  75        2S         -0.15721   0.39629  -0.64444  -0.79024   0.92429
  76 14  C  1S          0.00000   0.05747   0.09968  -0.10528  -0.04658
  77        2S          0.00001  -0.00709  -0.02535   0.02770   0.01456
  78        2PX        -0.00011  -0.10032  -0.09722  -0.02683  -0.08384
  79        2PY        -0.00007   0.02737   0.02518  -0.06425  -0.11877
  80        2PZ        -0.00119   0.00049   0.00030   0.00189   0.03975
  81        3S         -0.00013  -0.94818  -1.43584   1.44957   0.61088
  82        3PX        -0.00067  -0.45112  -0.49539  -0.19623  -0.40883
  83        3PY        -0.00084   0.04358   0.08529  -0.39280  -0.59093
  84        3PZ         0.03578   0.00284   0.00160   0.00978   0.19462
  85 15  H  1S         -0.04993  -0.00498  -0.00229  -0.01313  -0.02530
  86        2S         -0.16204   0.39593   0.64395  -0.83403  -0.85341
  87 16  H  1S          0.04964  -0.00488  -0.00217  -0.01238  -0.00054
  88        2S          0.16023   0.39994   0.64596  -0.81764  -0.43539
  89 17  H  1S          0.00032   0.01437   0.01006   0.03027   0.03509
  90        2S          0.00201   0.69160   0.89160  -0.07606   0.62589
                          36        37        38        39        40
                           V         V         V         V         V
     Eigenvalues --     0.32019   0.32156   0.35154   0.35983   0.36294
   1 1   C  1S          0.00274  -0.00242  -0.00006  -0.06592   0.07412
   2        2S          0.00211  -0.00226   0.00004   0.03049  -0.03519
   3        2PX         0.02616  -0.00171   0.00034  -0.13168   0.07063
   4        2PY        -0.02164   0.09920   0.00032   0.01965  -0.09214
   5        2PZ        -0.16065   0.00172   0.00320  -0.00003   0.00001
   6        3S         -0.08478   0.05263  -0.00004   0.93226  -1.04923
   7        3PX         0.11910  -0.09820   0.00098  -0.60914   0.45778
   8        3PY        -0.08331   0.33604   0.00125   0.04369  -0.30319
   9        3PZ        -0.35648   0.00369   0.11455   0.00015   0.00037
  10 2   C  1S          0.00336   0.02111   0.00011   0.03532   0.01755
  11        2S          0.00406  -0.01705   0.00000  -0.01056  -0.01239
  12        2PX         0.01053   0.02221   0.00038  -0.08541  -0.02563
  13        2PY         0.00333   0.05299   0.00029  -0.04521   0.06656
  14        2PZ         0.10845  -0.00126  -0.05805  -0.00020  -0.00030
  15        3S         -0.08617  -0.21185  -0.00176  -0.60437  -0.17983
  16        3PX         0.00719   0.17402   0.00160  -0.30791  -0.03928
  17        3PY         0.02215   0.20596   0.00147  -0.04682   0.31924
  18        3PZ         0.18105  -0.00180  -0.29648  -0.00072  -0.00111
  19 3   C  1S         -0.00054   0.01805   0.00037  -0.00043  -0.06827
  20        2S          0.00025   0.00178  -0.00017   0.00009   0.02353
  21        2PX         0.01866   0.00413  -0.00020  -0.03642   0.00143
  22        2PY        -0.00060   0.16272   0.00071  -0.00227  -0.11959
  23        2PZ        -0.04675   0.00094  -0.00012   0.00021   0.00026
  24        3S          0.00717  -0.49898  -0.00577   0.00896   1.09797
  25        3PX         0.00440   0.00186  -0.00136  -0.59068   0.01350
  26        3PY        -0.00257   0.67065   0.00262  -0.00956  -0.59562
  27        3PZ        -0.20258   0.00281   0.00085   0.00007   0.00026
  28 4   C  1S         -0.00352   0.02092  -0.00000  -0.03499   0.01864
  29        2S         -0.00396  -0.01895  -0.00025   0.00982  -0.01230
  30        2PX         0.01159  -0.01674  -0.00023  -0.08596   0.02842
  31        2PY        -0.00401   0.04981  -0.00003   0.04512   0.06650
  32        2PZ         0.10827  -0.00133   0.05869   0.00024   0.00014
  33        3S          0.08761  -0.18905   0.00228   0.60132  -0.20232
  34        3PX         0.01130  -0.16883  -0.00186  -0.31327   0.05307
  35        3PY        -0.02537   0.19299   0.00085   0.04925   0.32309
  36        3PZ         0.17978  -0.00268   0.29769   0.00095   0.00076
  37 5   C  1S         -0.00282  -0.00503  -0.00032   0.06704   0.07296
  38        2S         -0.00211  -0.00232   0.00014  -0.03119  -0.03452
  39        2PX         0.02722   0.01137   0.00032  -0.13455  -0.06610
  40        2PY         0.02130   0.10647   0.00066  -0.02261  -0.09367
  41        2PZ        -0.16024   0.00138  -0.00462  -0.00038  -0.00022
  42        3S          0.08659   0.10091   0.00384  -0.94923  -1.03338
  43        3PX         0.12309   0.14477   0.00148  -0.62027  -0.43853
  44        3PY         0.08101   0.36396   0.00395  -0.05254  -0.30940
  45        3PZ        -0.35344   0.00373  -0.11869  -0.00069  -0.00042
  46 6   N  1S         -0.00039   0.02514   0.00032   0.00012  -0.03127
  47        2S          0.00015  -0.01456  -0.00015  -0.00002   0.02309
  48        2PX         0.00680   0.00013  -0.00015  -0.00674   0.00162
  49        2PY        -0.00048   0.00926   0.00035   0.00034  -0.03231
  50        2PZ         0.19389  -0.00191   0.00088   0.00020   0.00008
  51        3S          0.00394  -0.21294  -0.00327  -0.00046   0.22004
  52        3PX         0.01138   0.00006  -0.00068  -0.05523   0.00443
  53        3PY        -0.00122  -0.03437   0.00055   0.00199   0.03774
  54        3PZ         0.38699  -0.00391   0.00153   0.00035   0.00008
  55 7   H  1S         -0.00058   0.04873   0.00029   0.00034   0.03978
  56        2S         -0.00759   1.10678   0.00650  -0.01279  -1.06399
  57 8   H  1S          0.00278   0.01924   0.00004  -0.03088   0.02212
  58        2S          0.20216  -0.29484   0.00011  -1.14197   1.15455
  59 9   H  1S         -0.00325   0.01808   0.00013   0.03179   0.02096
  60        2S         -0.20585  -0.38018  -0.00558   1.16499   1.12716
  61 10  C  1S         -0.01248  -0.03826  -0.00027   0.02460  -0.02426
  62        2S          0.00390   0.01197   0.00006  -0.01656   0.00736
  63        2PX         0.02357  -0.03338   0.00001   0.02016  -0.02501
  64        2PY        -0.03571   0.16072   0.00056  -0.08735   0.05138
  65        2PZ         0.14275  -0.00193   0.21411   0.00056   0.00065
  66        3S          0.16415   0.49009   0.00382  -0.27691   0.35234
  67        3PX         0.11390  -0.11120   0.00102   0.19558  -0.12988
  68        3PY        -0.17532   0.69193   0.00202  -0.54055   0.40641
  69        3PZ         0.69668  -0.00957   1.06979   0.00265   0.00319
  70 11  H  1S         -0.04885   0.01395  -0.02634  -0.03151   0.03951
  71        2S         -0.94683   0.32227  -1.06149  -0.25202   0.16248
  72 12  H  1S          0.00989  -0.02131   0.00013   0.04762  -0.06306
  73        2S          0.18616  -0.91532  -0.00208   0.72387  -0.65319
  74 13  H  1S          0.04147   0.01280   0.02627  -0.03143   0.03966
  75        2S          0.57726   0.30211   1.06123  -0.24708   0.16906
  76 14  C  1S          0.01323  -0.03441   0.00002  -0.02487  -0.02372
  77        2S         -0.00411   0.01067   0.00002   0.01669   0.00686
  78        2PX         0.02421   0.04309  -0.00047   0.02199   0.02438
  79        2PY         0.03512   0.17261  -0.00023   0.09186   0.04797
  80        2PZ         0.14398  -0.00119  -0.21304  -0.00053  -0.00066
  81        3S         -0.17384   0.44180  -0.00056   0.28109   0.34696
  82        3PX         0.11814   0.15757  -0.00283   0.20528   0.12277
  83        3PY         0.17430   0.75010  -0.00239   0.56632   0.38599
  84        3PZ         0.70392  -0.00556  -1.06469  -0.00259  -0.00318
  85 15  H  1S         -0.04179   0.01475   0.02581   0.03236   0.03852
  86        2S         -0.58487   0.37340   1.05728   0.26543   0.15603
  87 16  H  1S          0.04924   0.01403  -0.02602   0.03261   0.03888
  88        2S          0.95569   0.36810  -1.05393   0.26609   0.15388
  89 17  H  1S         -0.01001  -0.02438   0.00024  -0.04916  -0.06178
  90        2S         -0.18084  -0.98598  -0.00067  -0.75473  -0.62876
                          41        42        43        44        45
                           V         V         V         V         V
     Eigenvalues --     0.41856   0.44572   0.45460   0.47555   0.53241
   1 1   C  1S          0.00011   0.03437   0.05291   0.04909  -0.02008
   2        2S         -0.00009  -0.02319  -0.03426  -0.01688  -0.00885
   3        2PX        -0.00033   0.03406  -0.03007  -0.14827  -0.03050
   4        2PY         0.00005   0.00973   0.03953  -0.03590   0.11656
   5        2PZ         0.13628  -0.00028  -0.00003  -0.00019  -0.00010
   6        3S          0.00048  -0.18134  -0.64310  -0.39250   0.63276
   7        3PX        -0.00092   0.58746   0.33079  -0.86286  -0.21018
   8        3PY        -0.00079  -0.06380   0.32444  -0.65896   0.76261
   9        3PZ         0.46266  -0.00091  -0.00012  -0.00066  -0.00020
  10 2   C  1S         -0.00034  -0.10674  -0.11264   0.02196  -0.06721
  11        2S          0.00020   0.06091   0.01762   0.03191  -0.01869
  12        2PX        -0.00018  -0.08369  -0.17110  -0.03584   0.14287
  13        2PY        -0.00039  -0.08512  -0.04111  -0.00678  -0.04249
  14        2PZ        -0.21346   0.00039   0.00004   0.00037   0.00015
  15        3S          0.00418   1.20941   2.07155  -0.87689   1.96126
  16        3PX        -0.00279  -1.16839  -0.95509  -0.57252   1.28726
  17        3PY        -0.00349  -0.68231  -0.28582  -0.17472  -0.52440
  18        3PZ        -0.69540   0.00136   0.00018   0.00111   0.00027
  19 3   C  1S          0.00000   0.07256   0.00223  -0.05708   0.00029
  20        2S         -0.00001  -0.05691  -0.00147   0.03177  -0.00077
  21        2PX         0.00028  -0.00170   0.05782   0.00679   0.18050
  22        2PY         0.00028  -0.00525  -0.00863   0.18651  -0.00194
  23        2PZ         0.22181  -0.00043  -0.00003  -0.00055  -0.00036
  24        3S          0.00109  -0.45387  -0.03075   0.89785  -0.01202
  25        3PX         0.00348  -0.01206   0.53547   0.06671   2.41999
  26        3PY         0.00398   0.85914  -0.05036   1.18927  -0.01201
  27        3PZ         0.62395  -0.00129  -0.00020  -0.00107  -0.00074
  28 4   C  1S         -0.00003  -0.10744   0.10969   0.03351   0.06526
  29        2S          0.00034   0.06096  -0.02019   0.03172   0.01746
  30        2PX         0.00037   0.08184  -0.17186   0.02240   0.14797
  31        2PY        -0.00025  -0.08683   0.04304   0.00386   0.04628
  32        2PZ        -0.21338   0.00054   0.00008   0.00046   0.00033
  33        3S         -0.00368   1.22782  -1.98085  -1.11787  -1.88793
  34        3PX         0.00487   1.15756  -0.99273   0.51173   1.30181
  35        3PY        -0.00217  -0.69278   0.30583  -0.09950   0.54206
  36        3PZ        -0.69489   0.00188   0.00030   0.00163   0.00121
  37 5   C  1S          0.00011   0.03434  -0.05688   0.04776   0.01902
  38        2S         -0.00005  -0.02338   0.03616  -0.01463   0.00862
  39        2PX         0.00020  -0.03269  -0.04539   0.14702  -0.03384
  40        2PY        -0.00025   0.00972  -0.03313  -0.04472  -0.11174
  41        2PZ         0.13631  -0.00036  -0.00013  -0.00016  -0.00019
  42        3S         -0.00008  -0.17455   0.66821  -0.38578  -0.61833
  43        3PX         0.00089  -0.58032   0.25496   0.88089  -0.26055
  44        3PY        -0.00345  -0.06525  -0.26022  -0.69754  -0.71426
  45        3PZ         0.46324  -0.00111  -0.00024  -0.00094  -0.00061
  46 6   N  1S         -0.00033   0.00420   0.00674  -0.15282   0.00358
  47        2S          0.00016   0.04043  -0.00181   0.04151  -0.00053
  48        2PX         0.00018   0.00028  -0.09297   0.00257   0.15709
  49        2PY        -0.00042  -0.07085   0.00544  -0.12590   0.00045
  50        2PZ        -0.15002   0.00032   0.00008   0.00019   0.00012
  51        3S          0.00351  -0.42475  -0.08742   2.00324  -0.05700
  52        3PX         0.00085   0.00076  -0.08880   0.01262   0.57171
  53        3PY        -0.00101   0.07486   0.02342  -0.58024   0.00980
  54        3PZ        -0.36350   0.00078   0.00015   0.00048   0.00027
  55 7   H  1S         -0.00031  -0.00375   0.00101  -0.02457   0.00094
  56        2S          0.00281   0.97496  -0.03886   0.82486  -0.01152
  57 8   H  1S          0.00008   0.01524  -0.02333   0.02771   0.05963
  58        2S         -0.00040   0.59401   0.29982  -0.14555  -0.75536
  59 9   H  1S         -0.00014   0.01533   0.02067   0.02636  -0.06122
  60        2S          0.00101   0.58455  -0.28445  -0.13393   0.75606
  61 10  C  1S          0.00020   0.05001   0.07237  -0.00594   0.00709
  62        2S          0.00002   0.01209   0.00899  -0.00660   0.02575
  63        2PX        -0.00024  -0.14290  -0.04105  -0.03591   0.16552
  64        2PY        -0.00034  -0.01236  -0.09626  -0.07642  -0.02249
  65        2PZ         0.15402  -0.00024   0.00002  -0.00025   0.00001
  66        3S         -0.00366  -0.95484  -1.23875   0.07674  -0.22670
  67        3PX        -0.00326  -1.22692  -0.96496  -0.15709   0.27204
  68        3PY        -0.00199  -0.50351  -0.79379  -0.25627   0.19471
  69        3PZ         0.78429  -0.00122   0.00006  -0.00109  -0.00007
  70 11  H  1S          0.01077  -0.04743  -0.03146   0.01313   0.02434
  71        2S         -0.70266  -0.07424  -0.12796  -0.21778   0.15067
  72 12  H  1S         -0.00016  -0.02619  -0.05948  -0.05126   0.00686
  73        2S          0.00052  -0.37422   0.26783  -0.05106   0.47695
  74 13  H  1S         -0.01091  -0.04740  -0.03145   0.01322   0.02436
  75        2S          0.70159  -0.07641  -0.12802  -0.21989   0.15067
  76 14  C  1S          0.00011   0.05033  -0.07104  -0.01360  -0.00585
  77        2S         -0.00011   0.01219  -0.00849  -0.00846  -0.02458
  78        2PX         0.00062   0.14188  -0.04442   0.03790   0.16188
  79        2PY         0.00007  -0.01278   0.10161  -0.06868   0.02415
  80        2PZ         0.15407  -0.00057  -0.00042  -0.00098  -0.00125
  81        3S         -0.00170  -0.96167   1.21976   0.21722   0.19723
  82        3PX         0.00338   1.22627  -0.97320   0.06188   0.27618
  83        3PY        -0.00041  -0.50467   0.80860  -0.19056  -0.21205
  84        3PZ         0.78455  -0.00236  -0.00171  -0.00355  -0.00338
  85 15  H  1S          0.01073  -0.04751   0.03044   0.01614  -0.02603
  86        2S         -0.70397  -0.07150   0.14643  -0.21292  -0.14543
  87 16  H  1S         -0.01086  -0.04770   0.03033   0.01654  -0.02584
  88        2S          0.70052  -0.07494   0.14520  -0.22153  -0.15268
  89 17  H  1S         -0.00024  -0.02605   0.06299  -0.04567  -0.00565
  90        2S          0.00116  -0.36964  -0.25569  -0.08644  -0.45681
                          46        47        48        49        50
                           V         V         V         V         V
     Eigenvalues --     0.61066   0.61801   0.67171   0.76234   0.91863
   1 1   C  1S         -0.11116   0.01972  -0.01283  -0.08121  -0.00015
   2        2S          0.01515   0.00854   0.00806  -0.11397   0.00005
   3        2PX         0.14195   0.06659   0.05688  -0.06021   0.00100
   4        2PY        -0.08258   0.17807   0.04111  -0.12996   0.00010
   5        2PZ        -0.00002   0.00005  -0.00002  -0.00004  -0.42464
   6        3S          2.34334  -0.76587   0.68407   2.26701   0.00095
   7        3PX         1.02705   0.64882  -1.18392   1.32072   0.00051
   8        3PY        -1.03910   1.06167  -2.15442  -1.41719   0.00119
   9        3PZ        -0.00006   0.00007  -0.00002  -0.00011   0.39920
  10 2   C  1S          0.03524   0.00184   0.00439   0.12256   0.00014
  11        2S         -0.03988  -0.01916  -0.00644  -0.07369  -0.00011
  12        2PX        -0.09771  -0.19815   0.07304  -0.13344   0.00012
  13        2PY        -0.20366   0.14071  -0.19162  -0.19749  -0.00006
  14        2PZ         0.00004   0.00006   0.00004   0.00002  -0.37040
  15        3S         -0.43798   0.25732  -0.05147  -2.75829  -0.00029
  16        3PX        -0.43109  -1.58495   1.12124  -2.40926  -0.00172
  17        3PY        -1.99928   1.22941  -2.25433  -1.47450   0.00111
  18        3PZ        -0.00007   0.00010  -0.00022   0.00010   0.01193
  19 3   C  1S          0.01713  -0.11437  -0.00017  -0.10405  -0.00001
  20        2S         -0.00074   0.00087   0.00153  -0.02655   0.00001
  21        2PX         0.09661   0.01604  -0.09794   0.00121  -0.00185
  22        2PY        -0.01203   0.07978   0.00143   0.05677   0.00030
  23        2PZ        -0.00011  -0.00020  -0.00020  -0.00006  -0.36693
  24        3S         -0.44746   3.00045  -0.01896   2.97797  -0.00002
  25        3PX         0.57197   0.03504   2.59229  -0.00544  -0.00065
  26        3PY        -0.14524   1.01835  -0.00289   2.53579  -0.00093
  27        3PZ         0.00001   0.00024  -0.00002   0.00019   0.33936
  28 4   C  1S         -0.03306  -0.01050  -0.00499   0.12284  -0.00020
  29        2S          0.04192  -0.00794   0.00798  -0.07414   0.00024
  30        2PX        -0.15057   0.15902   0.07317   0.13689  -0.00015
  31        2PY         0.15236   0.19002   0.19397  -0.19455   0.00003
  32        2PZ        -0.00004  -0.00006  -0.00002   0.00004  -0.37039
  33        3S          0.35251   0.48278   0.11928  -2.77217   0.00003
  34        3PX        -0.86484   1.34946   1.11699   2.41318  -0.00261
  35        3PY         1.56435   1.74331   2.27779  -1.49324  -0.00035
  36        3PZ        -0.00006  -0.00014   0.00004  -0.00004   0.01191
  37 5   C  1S          0.09923   0.05114   0.01281  -0.08268  -0.00001
  38        2S         -0.01859   0.00291  -0.00347  -0.11287   0.00003
  39        2PX         0.15804  -0.02315   0.05095   0.05459  -0.00090
  40        2PY         0.02304   0.19407  -0.04076  -0.12163   0.00072
  41        2PZ         0.00014   0.00040   0.00029  -0.00014  -0.42452
  42        3S         -1.99922  -1.43230  -0.74777   2.31175  -0.00014
  43        3PX         1.13026  -0.32913  -1.19009  -1.32416   0.00223
  44        3PY         0.71672   1.33859   2.17430  -1.43894  -0.00076
  45        3PZ         0.00003   0.00014   0.00009   0.00002   0.39950
  46 6   N  1S         -0.00424   0.04443   0.00025   0.07585   0.00014
  47        2S         -0.00097   0.00671  -0.00013  -0.01942  -0.00019
  48        2PX         0.22646   0.03219  -0.18443  -0.00406   0.00018
  49        2PY         0.01395  -0.09305   0.00012   0.11693   0.00009
  50        2PZ        -0.00004  -0.00012  -0.00005   0.00003  -0.03400
  51        3S          0.07725  -0.85856   0.01105  -1.49750  -0.00020
  52        3PX         0.97858   0.14350  -1.35329  -0.01085   0.00118
  53        3PY         0.03042  -0.11197   0.00090   0.90379   0.00023
  54        3PZ        -0.00007  -0.00009   0.00004   0.00005  -0.12119
  55 7   H  1S         -0.01441   0.09316  -0.00011  -0.09490  -0.00040
  56        2S         -0.00765   0.07609  -0.00004   0.97286  -0.00017
  57 8   H  1S          0.04619  -0.05072   0.01454  -0.09129  -0.00117
  58        2S          0.52136  -0.00041   0.14404   0.69129   0.00041
  59 9   H  1S         -0.02986  -0.06209  -0.01613  -0.08870  -0.00048
  60        2S         -0.49675  -0.15628  -0.13961   0.69058  -0.00039
  61 10  C  1S          0.01867   0.01703   0.00176   0.00169  -0.00001
[...]
  81        3S         -0.00000  -0.00000   0.00000  -0.00000   0.00000
  82        3PX        -0.00000  -0.00002  -0.00000  -0.00000  -0.00000
  83        3PY        -0.00000   0.00000   0.00000  -0.00000  -0.00000
  84        3PZ         0.00000  -0.00000   0.00000   0.00000   0.00000
  85 15  H  1S          0.00000  -0.00000  -0.00000   0.00000  -0.00000
  86        2S          0.00000  -0.00000  -0.00000   0.00000  -0.00000
  87 16  H  1S          0.00000  -0.00000  -0.00000   0.00000   0.00000
  88        2S          0.00000  -0.00000  -0.00000   0.00000   0.00000
  89 17  H  1S          0.00000   0.00000   0.00000   0.00000   0.00000
  90        2S          0.00000   0.00000   0.00000   0.00000   0.00000
                          71        72        73        74        75
  71        2S          0.13010
  72 12  H  1S         -0.00499   0.18259
  73        2S         -0.01348   0.09060   0.12355
  74 13  H  1S         -0.00519  -0.00019  -0.00491   0.18117
  75        2S         -0.01491  -0.00499  -0.01348   0.09184   0.13010
  76 14  C  1S          0.00000   0.00000  -0.00000   0.00000   0.00000
  77        2S         -0.00000   0.00000   0.00000   0.00000  -0.00000
  78        2PX        -0.00000   0.00000   0.00000  -0.00000  -0.00000
  79        2PY        -0.00000   0.00000   0.00000  -0.00000  -0.00000
  80        2PZ        -0.00000   0.00000   0.00000   0.00000  -0.00000
  81        3S          0.00000   0.00000   0.00000   0.00000   0.00000
  82        3PX        -0.00000   0.00000   0.00000  -0.00000  -0.00000
  83        3PY        -0.00000   0.00000   0.00000  -0.00000  -0.00000
  84        3PZ         0.00000  -0.00000  -0.00000   0.00000   0.00000
  85 15  H  1S         -0.00000   0.00000   0.00000   0.00000   0.00000
  86        2S         -0.00000   0.00000  -0.00000   0.00000   0.00000
  87 16  H  1S          0.00000   0.00000   0.00000  -0.00000  -0.00000
  88        2S          0.00000   0.00000  -0.00000  -0.00000  -0.00000
  89 17  H  1S          0.00000   0.00000  -0.00000   0.00000   0.00000
  90        2S         -0.00000  -0.00000  -0.00000   0.00000  -0.00000
                          76        77        78        79        80
  76 14  C  1S          2.03889
  77        2S          0.02277   0.09978
  78        2PX         0.00000   0.00000   0.27309
  79        2PY         0.00000   0.00000   0.00000   0.28385
  80        2PZ         0.00000   0.00000   0.00000   0.00000   0.28592
  81        3S         -0.07893   0.17575   0.00000   0.00000   0.00000
  82        3PX         0.00000   0.00000   0.09559   0.00000   0.00000
  83        3PY         0.00000   0.00000   0.00000   0.12300   0.00000
  84        3PZ         0.00000   0.00000   0.00000   0.00000   0.13009
  85 15  H  1S         -0.00100   0.00934   0.00025   0.02013   0.04121
  86        2S          0.00183   0.00289   0.00030   0.01468   0.02917
  87 16  H  1S         -0.00100   0.00934   0.00022   0.02062   0.04075
  88        2S          0.00182   0.00289   0.00027   0.01503   0.02884
  89 17  H  1S         -0.00102   0.00946   0.03569   0.02657   0.00000
  90        2S          0.00174   0.00339   0.02548   0.01798   0.00000
                          81        82        83        84        85
  81        3S          0.85411
  82        3PX         0.00000   0.12716
  83        3PY         0.00000   0.00000   0.19967
  84        3PZ         0.00000   0.00000   0.00000   0.21368
  85 15  H  1S          0.05911  -0.00032   0.02761   0.06057   0.18116
  86        2S          0.02310  -0.00012   0.02982   0.06377   0.09187
  87 16  H  1S          0.05912  -0.00033   0.02830   0.05988  -0.00019
  88        2S          0.02313  -0.00014   0.03055   0.06305  -0.00520
  89 17  H  1S          0.06112   0.04543   0.04294   0.00000  -0.00019
  90        2S          0.02704   0.04859   0.04342   0.00000  -0.00490
                          86        87        88        89        90
  86        2S          0.13023
  87 16  H  1S         -0.00520   0.18117
  88        2S         -0.01496   0.09187   0.13021
  89 17  H  1S         -0.00499  -0.00019  -0.00498   0.18259
  90        2S         -0.01344  -0.00490  -0.01344   0.09052   0.12334
     Gross orbital populations:
                           1
   1 1   C  1S          1.98729
   2        2S          0.40702
   3        2PX         0.58008
   4        2PY         0.61768
   5        2PZ         0.40798
   6        3S          0.74282
   7        3PX         0.28251
   8        3PY         0.25361
   9        3PZ         0.58237
  10 2   C  1S          1.98864
  11        2S          0.39512
  12        2PX         0.59321
  13        2PY         0.62262
  14        2PZ         0.40497
  15        3S          0.87060
  16        3PX         0.38050
  17        3PY         0.33199
  18        3PZ         0.58256
  19 3   C  1S          1.98846
  20        2S          0.39869
  21        2PX         0.62632
  22        2PY         0.58785
  23        2PZ         0.40386
  24        3S          0.88240
  25        3PX         0.19315
  26        3PY         0.48746
  27        3PZ         0.57688
  28 4   C  1S          1.98864
  29        2S          0.39523
  30        2PX         0.59147
  31        2PY         0.62479
  32        2PZ         0.40508
  33        3S          0.86959
  34        3PX         0.38320
  35        3PY         0.32842
  36        3PZ         0.58232
  37 5   C  1S          1.98728
  38        2S          0.40647
  39        2PX         0.57573
  40        2PY         0.61930
  41        2PZ         0.40921
  42        3S          0.74716
  43        3PX         0.28624
  44        3PY         0.25203
  45        3PZ         0.58421
  46 6   N  1S          1.99045
  47        2S          0.38269
  48        2PX         0.57371
  49        2PY         0.75601
  50        2PZ         0.42837
  51        3S          1.45590
  52        3PX         0.52750
  53        3PY         0.91069
  54        3PZ         0.64940
  55 7   H  1S          0.47765
  56        2S          0.28156
  57 8   H  1S          0.48629
  58        2S          0.26292
  59 9   H  1S          0.48519
  60        2S          0.26441
  61 10  C  1S          1.98843
  62        2S          0.35459
  63        2PX         0.53304
  64        2PY         0.55050
  65        2PZ         0.55371
  66        3S          1.14068
  67        3PX         0.38602
  68        3PY         0.51971
  69        3PZ         0.56789
  70 11  H  1S          0.46879
  71        2S          0.30688
  72 12  H  1S          0.47216
  73        2S          0.30921
  74 13  H  1S          0.46879
  75        2S          0.30689
  76 14  C  1S          1.98843
  77        2S          0.35462
  78        2PX         0.53318
  79        2PY         0.55054
  80        2PZ         0.55369
  81        3S          1.14087
  82        3PX         0.38597
  83        3PY         0.51939
  84        3PZ         0.56770
  85 15  H  1S          0.46877
  86        2S          0.30690
  87 16  H  1S          0.46880
  88        2S          0.30701
  89 17  H  1S          0.47218
  90        2S          0.30894
          Condensed to atoms (all electrons):
               1          2          3          4          5          6
     1  C    4.932008   0.357199  -0.096340  -0.001342  -0.134605   0.424335
     2  C    0.357199   5.572185   0.425551  -0.085812  -0.002098  -0.068019
     3  C   -0.096340   0.425551   5.240628   0.421670  -0.096913  -0.037760
     4  C   -0.001342  -0.085812   0.421670   5.572190   0.359243  -0.068012
     5  C   -0.134605  -0.002098  -0.096913   0.359243   4.939606   0.422059
     6  N    0.424335  -0.068019  -0.037760  -0.068012   0.422059   7.069691
     7  H    0.001766  -0.033579   0.406697  -0.033309   0.001766  -0.000069
     8  H    0.412210  -0.066304   0.003015  -0.000834   0.003070  -0.036758
     9  H    0.003012  -0.000825   0.003021  -0.066379   0.412514  -0.036175
    10  C   -0.037545   0.223547  -0.062247   0.002077   0.000148   0.002794
    11  H    0.000772  -0.052071  -0.001580   0.000048   0.000008  -0.000031
    12  H   -0.001053  -0.049604   0.002852  -0.000070   0.000016   0.000001
    13  H    0.000775  -0.052064  -0.001580   0.000048   0.000008  -0.000031
    14  C    0.000134   0.002061  -0.061731   0.223368  -0.037622   0.002754
    15  H    0.000009   0.000050  -0.001527  -0.052237   0.000717  -0.000031
    16  H    0.000008   0.000052  -0.001530  -0.052200   0.000744  -0.000031
    17  H    0.000015  -0.000070   0.002845  -0.049709  -0.001037  -0.000000
               7          8          9         10         11         12
     1  C    0.001766   0.412210   0.003012  -0.037545   0.000772  -0.001053
     2  C   -0.033579  -0.066304  -0.000825   0.223547  -0.052071  -0.049604
     3  C    0.406697   0.003015   0.003021  -0.062247  -0.001580   0.002852
     4  C   -0.033309  -0.000834  -0.066379   0.002077   0.000048  -0.000070
     5  C    0.001766   0.003070   0.412514   0.000148   0.000008   0.000016
     6  N   -0.000069  -0.036758  -0.036175   0.002794  -0.000031   0.000001
     7  H    0.416898  -0.000035  -0.000035  -0.001210   0.000369   0.000013
     8  H   -0.000035   0.432050   0.000039   0.001525  -0.000038   0.001308
     9  H   -0.000035   0.000039   0.431748   0.000003  -0.000000  -0.000000
    10  C   -0.001210   0.001525   0.000003   5.313195   0.382294   0.387711
    11  H    0.000369  -0.000038  -0.000000   0.382294   0.494958  -0.023575
    12  H    0.000013   0.001308  -0.000000   0.387711  -0.023575   0.487343
    13  H    0.000370  -0.000038  -0.000000   0.382295  -0.025489  -0.023574
    14  C   -0.001172   0.000003   0.001449  -0.000027   0.000000   0.000000
    15  H    0.000361  -0.000000  -0.000035   0.000000  -0.000001  -0.000000
    16  H    0.000370  -0.000000  -0.000035  -0.000000   0.000000  -0.000000
    17  H    0.000012  -0.000000   0.001302   0.000000  -0.000000  -0.000000
              13         14         15         16         17
     1  C    0.000775   0.000134   0.000009   0.000008   0.000015
     2  C   -0.052064   0.002061   0.000050   0.000052  -0.000070
     3  C   -0.001580  -0.061731  -0.001527  -0.001530   0.002845
     4  C    0.000048   0.223368  -0.052237  -0.052200  -0.049709
     5  C    0.000008  -0.037622   0.000717   0.000744  -0.001037
     6  N   -0.000031   0.002754  -0.000031  -0.000031  -0.000000
     7  H    0.000370  -0.001172   0.000361   0.000370   0.000012
     8  H   -0.000038   0.000003  -0.000000  -0.000000  -0.000000
     9  H   -0.000000   0.001449  -0.000035  -0.000035   0.001302
    10  C    0.382295  -0.000027   0.000000  -0.000000   0.000000
    11  H   -0.025489   0.000000  -0.000001   0.000000  -0.000000
    12  H   -0.023574   0.000000  -0.000000  -0.000000  -0.000000
    13  H    0.494957   0.000000   0.000000  -0.000001  -0.000000
    14  C    0.000000   5.312670   0.382303   0.382366   0.387825
    15  H    0.000000   0.382303   0.495128  -0.025549  -0.023516
    16  H   -0.000001   0.382366  -0.025549   0.495129  -0.023512
    17  H   -0.000000   0.387825  -0.023516  -0.023512   0.486967
 Mulliken charges:
               1
     1  C    0.138642
     2  C   -0.170200
     3  C   -0.145072
     4  C   -0.168740
     5  C    0.132375
     6  N   -0.674715
     7  H    0.240788
     8  H    0.250786
     9  H    0.250395
    10  C   -0.594562
    11  H    0.224334
    12  H    0.218631
    13  H    0.224323
    14  C   -0.594382
    15  H    0.224329
    16  H    0.224190
    17  H    0.218877
 Sum of Mulliken charges =  -0.00000
 Mulliken charges with hydrogens summed into heavy atoms:
               1
     1  C    0.389428
     2  C   -0.170200
     3  C    0.095715
     4  C   -0.168740
     5  C    0.382770
     6  N   -0.674715
    10  C    0.072728
    14  C    0.073015
 Electronic spatial extent (au):  <R**2>=            992.6491
 Charge=             -0.0000 electrons
 Dipole moment (field-independent basis, Debye):
    X=             -0.0036    Y=             -2.7524    Z=              0.0005  Tot=              2.7524
 Quadrupole moment (field-independent basis, Debye-Ang):
   XX=            -40.9253   YY=            -51.9799   ZZ=            -51.6775
   XY=             -0.0090   XZ=              0.0004   YZ=             -0.0002
 Traceless Quadrupole moment (field-independent basis, Debye-Ang):
   XX=              7.2690   YY=             -3.7857   ZZ=             -3.4833
   XY=             -0.0090   XZ=              0.0004   YZ=             -0.0002
 Octapole moment (field-independent basis, Debye-Ang**2):
  XXX=             -0.0230  YYY=            -19.1257  ZZZ=              0.0117  XYY=              0.0307
  XXY=              4.7430  XXZ=             -0.0007  XZZ=             -0.0199  YZZ=             -1.7989
  YYZ=             -0.0077  XYZ=             -0.0041
 Hexadecapole moment (field-independent basis, Debye-Ang**3):
 XXXX=           -829.0160 YYYY=           -446.8446 ZZZZ=            -64.7642 XXXY=             -0.0489
 XXXZ=             -0.0198 YYYX=              0.0816 YYYZ=              0.0283 ZZZX=              0.0262
 ZZZY=             -0.0129 XXYY=           -196.2688 XXZZ=           -160.5471 YYZZ=            -79.0289
 XXYZ=             -0.0194 YYXZ=             -0.0114 ZZXY=             -0.0326
 N-N= 3.458941261355D+02 E-N=-1.443374273850D+03  KE= 3.223802028025D+02
 Orbital energies and kinetic energies (alpha):
                                 1                 2
   1         O               -15.485598         21.929947
   2         O               -11.205183         15.871868
   3         O               -11.204575         15.867556
   4         O               -11.192497         15.873768
   5         O               -11.192428         15.879161
   6         O               -11.187560         15.875302
   7         O               -11.170988         15.876032
   8         O               -11.170898         15.875274
   9         O                -1.261583          1.791397
  10         O                -1.104566          1.659026
  11         O                -1.075349          1.520191
  12         O                -0.958099          1.392232
  13         O                -0.951441          1.525149
  14         O                -0.853512          1.544061
  15         O                -0.807930          1.544698
  16         O                -0.711498          1.059844
  17         O                -0.683625          1.395028
  18         O                -0.598475          1.351484
  19         O                -0.598239          0.896401
  20         O                -0.584227          1.279432
  21         O                -0.580457          0.929812
  22         O                -0.570815          1.169665
  23         O                -0.553129          1.242256
  24         O                -0.542098          1.175011
  25         O                -0.515211          1.056587
  26         O                -0.497921          1.476673
  27         O                -0.390340          1.843087
  28         O                -0.364999          1.191751
  29         O                -0.338119          1.097409
  30         V                 0.129294          1.361001
  31         V                 0.152435          1.280696
  32         V                 0.271063          0.950186
  33         V                 0.290829          0.979552
  34         V                 0.312803          1.136973
  35         V                 0.320008          0.961718
  36         V                 0.320194          1.173316
  37         V                 0.321559          1.019968
  38         V                 0.351539          0.890916
  39         V                 0.359830          1.095153
  40         V                 0.362942          1.157804
  41         V                 0.418556          1.449975
  42         V                 0.445716          1.718919
  43         V                 0.454600          1.848661
  44         V                 0.475554          1.954890
  45         V                 0.532407          1.552945
  46         V                 0.610662          2.103973
  47         V                 0.618007          1.934595
  48         V                 0.671707          1.344115
  49         V                 0.762338          2.633295
  50         V                 0.918626          2.326443
  51         V                 0.926332          2.595827
  52         V                 0.942668          2.414237
  53         V                 0.947745          2.168478
  54         V                 0.951737          2.478316
  55         V                 0.989987          2.972562
  56         V                 1.019172          2.301764
  57         V                 1.031861          2.812348
  58         V                 1.053564          2.684622
  59         V                 1.087930          2.638891
  60         V                 1.094337          2.970957
  61         V                 1.118155          3.236731
  62         V                 1.163868          2.896092
  63         V                 1.174547          2.729047
  64         V                 1.194481          2.727311
  65         V                 1.202371          2.798088
  66         V                 1.216788          2.923109
  67         V                 1.217302          3.075373
  68         V                 1.340292          2.899243
  69         V                 1.344650          3.008006
  70         V                 1.349290          2.972535
  71         V                 1.351768          3.165429
  72         V                 1.361366          2.865527
  73         V                 1.368394          3.017183
  74         V                 1.422347          3.196353
  75         V                 1.448003          3.228747
  76         V                 1.560327          3.907738
  77         V                 1.563832          3.135624
  78         V                 1.616658          3.148797
  79         V                 1.619708          2.982415
  80         V                 1.687484          3.493953
  81         V                 1.740098          3.555189
  82         V                 1.784704          3.149933
  83         V                 1.846529          3.343033
  84         V                 1.929471          3.312675
  85         V                 1.972737          3.539073
  86         V                 2.172696          3.238344
  87         V                 2.259793          3.404970
  88         V                 2.293645          3.679757
  89         V                 2.319396          3.463305
  90         V                 3.273711          5.080891
 Total kinetic energy from orbitals= 3.223802028025D+02
 1\1\GINC-IISERK51\SP\RHF\3-21G\C7H9N1\GAUSSIAN\16-Jun-2025\0\\# hf/3-2
 1g pop=full geom=connectivity\\Title Card Required\\0,1\C,0,0.83436,1.
 207501,-0.000053\C,0,2.212907,1.210591,0.000002\C,0,2.85697,-0.013944,
 0.000123\C,0,2.140521,-1.204332,0.000118\C,0,0.771105,-1.119761,0.0000
 41\N,0,0.135941,0.066533,-0.000049\H,0,3.929899,-0.04611,0.000234\H,0,
 0.270564,2.111029,-0.000128\H,0,0.15117,-1.988071,0.000091\C,0,2.98625
 4,2.512521,-0.000075\H,0,3.615781,2.580562,-0.879839\H,0,2.315772,3.36
 1759,0.000216\H,0,3.616307,2.580378,0.879321\C,0,2.840838,-2.546438,-0
 .000145\H,0,3.462102,-2.650043,-0.882343\H,0,3.46957,-2.646624,0.87711
 1\H,0,2.124516,-3.357176,0.004486\\Version=EM64L-G16RevB.01\State=1-A\
 HF=-322.9542727\RMSD=3.500e-09\Dipole=1.0824803,-0.029143,-0.0002003\Q
 uadrupole=-2.8083898,5.3981366,-2.5897468,0.2252622,-0.0001177,0.00033
 07\PG=C01 [X(C7H9N1)]\\@


 NECESSARY EVIL: ONE WE LIKE TOO MUCH TO RELINQUISH.
 Job cpu time:       0 days  0 hours  0 minutes  1.3 seconds.
 Elapsed time:       0 days  0 hours  0 minutes  1.3 seconds.
 File lengths (MBytes):  RWF=      6 Int=      0 D2E=      0 Chk=      2 Scr=      1
 Normal termination of Gaussian 16 at Mon Jun 16 23:34:57 2025.
