 Entering Gaussian System, Link 0=g16
 Input=/home/gaussian/Documents/Summer_Internship/Acid_Base_adduct/Adduct/3,5 DMP - BCl3/35DMP_BCl3_adduct_opt.com
 Output=/home/gaussian/Documents/Summer_Internship/Acid_Base_adduct/Adduct/3,5 DMP - BCl3/35DMP_BCl3_adduct_opt.log
 Initial command:
 /usr/local/g16/l1.exe "/home/gaussian/tmp/Gau-80896.inp" -scrdir="/home/gaussian/tmp/"
 Entering Link 1 = /usr/local/g16/l1.exe PID=     80899.
  
 Copyright (c) 1988-2017, Gaussian, Inc.  All Rights Reserved.
  
 This is part of the Gaussian(R) 16 program.  It is based on
 the Gaussian(R) 09 system (copyright 2009, Gaussian, Inc.),
 the Gaussian(R) 03 system (copyright 2003, Gaussian, Inc.),
 the Gaussian(R) 98 system (copyright 1998, Gaussian, Inc.),
 the Gaussian(R) 94 system (copyright 1995, Gaussian, Inc.),
 the Gaussian 92(TM) system (copyright 1992, Gaussian, Inc.),
 the Gaussian 90(TM) system (copyright 1990, Gaussian, Inc.),
 the Gaussian 88(TM) system (copyright 1988, Gaussian, Inc.),
 the Gaussian 86(TM) system (copyright 1986, Carnegie Mellon
 University), and the Gaussian 82(TM) system (copyright 1983,
 Carnegie Mellon University). Gaussian is a federally registered
 trademark of Gaussian, Inc.
  
 This software contains proprietary and confidential information,
 including trade secrets, belonging to Gaussian, Inc.
  
 This software is provided under written license and may be
 used, copied, transmitted, or stored only in accord with that
 written license.
  
 The following legend is applicable only to US Government
 contracts under FAR:
  
                    RESTRICTED RIGHTS LEGEND
  
 Use, reproduction and disclosure by the US Government is
 subject to restrictions as set forth in subparagraphs (a)
 and (c) of the Commercial Computer Software - Restricted
 Rights clause in FAR 52.227-19.
  
 Gaussian, Inc.
 340 Quinnipiac St., Bldg. 40, Wallingford CT 06492
  
  
 ---------------------------------------------------------------
 Warning -- This program may not be used in any manner that
 competes with the business of Gaussian, Inc. or will provide
 assistance to any competitor of Gaussian, Inc.  The licensee
 of this program is prohibited from giving any competitor of
 Gaussian, Inc. access to this program.  By using this program,
 the user acknowledges that Gaussian, Inc. is engaged in the
 business of creating and licensing software in the field of
 computational chemistry and represents and warrants to the
 licensee that it is not a competitor of Gaussian, Inc. and that
 it will not use this program in any manner prohibited above.
 ---------------------------------------------------------------
  

 Cite this work as:
 Gaussian 16, Revision B.01,
 M. J. Frisch, G. W. Trucks, H. B. Schlegel, G. E. Scuseria, 
 M. A. Robb, J. R. Cheeseman, G. Scalmani, V. Barone, 
 G. A. Petersson, H. Nakatsuji, X. Li, M. Caricato, A. V. Marenich, 
 J. Bloino, B. G. Janesko, R. Gomperts, B. Mennucci, H. P. Hratchian, 
 J. V. Ortiz, A. F. Izmaylov, J. L. Sonnenberg, D. Williams-Young, 
 F. Ding, F. Lipparini, F. Egidi, J. Goings, B. Peng, A. Petrone, 
 T. Henderson, D. Ranasinghe, V. G. Zakrzewski, J. Gao, N. Rega, 
 G. Zheng, W. Liang, M. Hada, M. Ehara, K. Toyota, R. Fukuda, 
 J. Hasegawa, M. Ishida, T. Nakajima, Y. Honda, O. Kitao, H. Nakai, 
 T. Vreven, K. Throssell, J. A. Montgomery, Jr., J. E. Peralta, 
 F. Ogliaro, M. J. Bearpark, J. J. Heyd, E. N. Brothers, K. N. Kudin, 
 V. N. Staroverov, T. A. Keith, R. Kobayashi, J. Normand, 
 K. Raghavachari, A. P. Rendell, J. C. Burant, S. S. Iyengar, 
 J. Tomasi, M. Cossi, J. M. Millam, M. Klene, C. Adamo, R. Cammi, 
 J. W. Ochterski, R. L. Martin, K. Morokuma, O. Farkas, 
 J. B. Foresman, and D. J. Fox, Gaussian, Inc., Wallingford CT, 2016.
 
 ******************************************
 Gaussian 16:  EM64L-G16RevB.01 20-Dec-2017
                16-Jun-2025 
 ******************************************
 %chk=35DMP_BCl3_adduct_opt.chk
 ----------------------------------------------
 # opt freq hf/3-21g pop=full geom=connectivity
 ----------------------------------------------
 1/18=20,19=15,38=1,57=2/1,3;
 2/9=110,12=2,17=6,18=5,40=1/2;
 3/5=5,11=9,25=1,30=1,71=1/1,2,3;
 4//1;
 5/5=2,38=5/2;
 6/7=3,28=1/1;
 7//1,2,3,16;
 1/18=20,19=15/3(2);
 2/9=110/2;
 99//99;
 2/9=110/2;
 3/5=5,11=9,25=1,30=1,71=1/1,2,3;
 4/5=5,16=3,69=1/1;
 5/5=2,38=5/2;
 7//1,2,3,16;
 1/18=20,19=15/3(-5);
 2/9=110/2;
 6/7=3,19=2,28=1/1;
 99/9=1/99;
 -------------------
 Title Card Required
 -------------------
 Symbolic Z-matrix:
 Charge =  0 Multiplicity = 1
 C                    -0.83296   1.20426  -0.00129 
 C                    -2.21543   1.21012  -0.00141 
 C                    -2.8593   -0.01018  -0.00133 
 C                    -2.14179  -1.20426   0.00132 
 C                    -0.77536  -1.12288   0.00146 
 N                    -0.13733   0.06612   0.00015 
 H                    -3.93162  -0.04327  -0.00147 
 H                    -0.26988   2.109    -0.00256 
 H                    -0.15529  -1.9909    0.00282 
 C                    -2.96248   2.52793   0.00261 
 H                    -2.76964   3.07315   0.92174 
 H                    -2.65374   3.14741  -0.83509 
 H                    -4.03142   2.36081  -0.07593 
 C                    -2.84704  -2.54359   0.00131 
 H                    -3.47424  -2.64144   0.88071 
 H                    -3.4708   -2.64438  -0.87876 
 H                    -2.13369  -3.35693   0.00439 
 B                     1.4689    0.0274    0.00003 
 Cl                    1.98467  -0.91776  -1.55856 
 Cl                    2.16625   1.77848   0.00039 
 Cl                    1.98516  -0.91847   1.55792 
 

 GradGradGradGradGradGradGradGradGradGradGradGradGradGradGradGradGradGrad
 Berny optimization.
 Initialization pass.
                           ----------------------------
                           !    Initial Parameters    !
                           ! (Angstroms and Degrees)  !
 --------------------------                            --------------------------
 ! Name  Definition              Value          Derivative Info.                !
 --------------------------------------------------------------------------------
 ! R1    R(1,2)                  1.3825         estimate D2E/DX2                !
 ! R2    R(1,6)                  1.3339         estimate D2E/DX2                !
 ! R3    R(1,8)                  1.0657         estimate D2E/DX2                !
 ! R4    R(2,3)                  1.3797         estimate D2E/DX2                !
 ! R5    R(2,10)                 1.5148         estimate D2E/DX2                !
 ! R6    R(3,4)                  1.3931         estimate D2E/DX2                !
 ! R7    R(3,7)                  1.0728         estimate D2E/DX2                !
 ! R8    R(4,5)                  1.3689         estimate D2E/DX2                !
 ! R9    R(4,14)                 1.5137         estimate D2E/DX2                !
 ! R10   R(5,6)                  1.3494         estimate D2E/DX2                !
 ! R11   R(5,9)                  1.0667         estimate D2E/DX2                !
 ! R12   R(6,18)                 1.6067         estimate D2E/DX2                !
 ! R13   R(10,11)                1.0859         estimate D2E/DX2                !
 ! R14   R(10,12)                1.0866         estimate D2E/DX2                !
 ! R15   R(10,13)                1.0848         estimate D2E/DX2                !
 ! R16   R(14,15)                1.0846         estimate D2E/DX2                !
 ! R17   R(14,16)                1.0834         estimate D2E/DX2                !
 ! R18   R(14,17)                1.0818         estimate D2E/DX2                !
 ! R19   R(18,19)                1.8943         estimate D2E/DX2                !
 ! R20   R(18,20)                1.8848         estimate D2E/DX2                !
 ! R21   R(18,21)                1.8943         estimate D2E/DX2                !
 ! A1    A(2,1,6)              121.6766         estimate D2E/DX2                !
 ! A2    A(2,1,8)              121.6536         estimate D2E/DX2                !
 ! A3    A(6,1,8)              116.6699         estimate D2E/DX2                !
 ! A4    A(1,2,3)              117.5744         estimate D2E/DX2                !
 ! A5    A(1,2,10)             119.7914         estimate D2E/DX2                !
 ! A6    A(3,2,10)             122.6339         estimate D2E/DX2                !
 ! A7    A(2,3,4)              121.1813         estimate D2E/DX2                !
 ! A8    A(2,3,7)              119.5849         estimate D2E/DX2                !
 ! A9    A(4,3,7)              119.2336         estimate D2E/DX2                !
 ! A10   A(3,4,5)              117.5929         estimate D2E/DX2                !
 ! A11   A(3,4,14)             121.2291         estimate D2E/DX2                !
 ! A12   A(5,4,14)             121.1778         estimate D2E/DX2                !
 ! A13   A(4,5,6)              121.6266         estimate D2E/DX2                !
 ! A14   A(4,5,9)              122.132          estimate D2E/DX2                !
 ! A15   A(6,5,9)              116.2414         estimate D2E/DX2                !
 ! A16   A(1,6,5)              120.3481         estimate D2E/DX2                !
 ! A17   A(1,6,18)             122.8141         estimate D2E/DX2                !
 ! A18   A(5,6,18)             116.8377         estimate D2E/DX2                !
 ! A19   A(2,10,11)            110.5757         estimate D2E/DX2                !
 ! A20   A(2,10,12)            110.7186         estimate D2E/DX2                !
 ! A21   A(2,10,13)            110.5941         estimate D2E/DX2                !
 ! A22   A(11,10,12)           108.4095         estimate D2E/DX2                !
 ! A23   A(11,10,13)           108.2768         estimate D2E/DX2                !
 ! A24   A(12,10,13)           108.1793         estimate D2E/DX2                !
 ! A25   A(4,14,15)            110.4428         estimate D2E/DX2                !
 ! A26   A(4,14,16)            110.5223         estimate D2E/DX2                !
 ! A27   A(4,14,17)            110.9779         estimate D2E/DX2                !
 ! A28   A(15,14,16)           108.4998         estimate D2E/DX2                !
 ! A29   A(15,14,17)           108.13           estimate D2E/DX2                !
 ! A30   A(16,14,17)           108.1796         estimate D2E/DX2                !
 ! A31   A(6,18,19)            106.5156         estimate D2E/DX2                !
 ! A32   A(6,18,20)            110.3338         estimate D2E/DX2                !
 ! A33   A(6,18,21)            106.5248         estimate D2E/DX2                !
 ! A34   A(19,18,20)           111.2817         estimate D2E/DX2                !
 ! A35   A(19,18,21)           110.6905         estimate D2E/DX2                !
 ! A36   A(20,18,21)           111.2789         estimate D2E/DX2                !
 ! D1    D(6,1,2,3)             -0.0637         estimate D2E/DX2                !
 ! D2    D(6,1,2,10)           179.7526         estimate D2E/DX2                !
 ! D3    D(8,1,2,3)            179.9226         estimate D2E/DX2                !
 ! D4    D(8,1,2,10)            -0.2612         estimate D2E/DX2                !
 ! D5    D(2,1,6,5)              0.0042         estimate D2E/DX2                !
 ! D6    D(2,1,6,18)           179.9872         estimate D2E/DX2                !
 ! D7    D(8,1,6,5)           -179.9826         estimate D2E/DX2                !
 ! D8    D(8,1,6,18)             0.0004         estimate D2E/DX2                !
 ! D9    D(1,2,3,4)              0.1182         estimate D2E/DX2                !
 ! D10   D(1,2,3,7)           -179.997          estimate D2E/DX2                !
 ! D11   D(10,2,3,4)          -179.6924         estimate D2E/DX2                !
 ! D12   D(10,2,3,7)             0.1924         estimate D2E/DX2                !
 ! D13   D(1,2,10,11)          -64.4729         estimate D2E/DX2                !
 ! D14   D(1,2,10,12)           55.7016         estimate D2E/DX2                !
 ! D15   D(1,2,10,13)          175.5998         estimate D2E/DX2                !
 ! D16   D(3,2,10,11)          115.3337         estimate D2E/DX2                !
 ! D17   D(3,2,10,12)         -124.4918         estimate D2E/DX2                !
 ! D18   D(3,2,10,13)           -4.5936         estimate D2E/DX2                !
 ! D19   D(2,3,4,5)             -0.1121         estimate D2E/DX2                !
 ! D20   D(2,3,4,14)          -179.9959         estimate D2E/DX2                !
 ! D21   D(7,3,4,5)           -179.9974         estimate D2E/DX2                !
 ! D22   D(7,3,4,14)             0.1188         estimate D2E/DX2                !
 ! D23   D(3,4,5,6)              0.0504         estimate D2E/DX2                !
 ! D24   D(3,4,5,9)           -179.9624         estimate D2E/DX2                !
 ! D25   D(14,4,5,6)           179.9343         estimate D2E/DX2                !
 ! D26   D(14,4,5,9)            -0.0785         estimate D2E/DX2                !
 ! D27   D(3,4,14,15)          -60.0467         estimate D2E/DX2                !
 ! D28   D(3,4,14,16)           60.0264         estimate D2E/DX2                !
 ! D29   D(3,4,14,17)         -179.953          estimate D2E/DX2                !
 ! D30   D(5,4,14,15)          120.0736         estimate D2E/DX2                !
 ! D31   D(5,4,14,16)         -119.8533         estimate D2E/DX2                !
 ! D32   D(5,4,14,17)            0.1674         estimate D2E/DX2                !
 ! D33   D(4,5,6,1)              0.0024         estimate D2E/DX2                !
 ! D34   D(4,5,6,18)          -179.9816         estimate D2E/DX2                !
 ! D35   D(9,5,6,1)           -179.9855         estimate D2E/DX2                !
 ! D36   D(9,5,6,18)             0.0305         estimate D2E/DX2                !
 ! D37   D(1,6,18,19)         -120.8148         estimate D2E/DX2                !
 ! D38   D(1,6,18,20)            0.0899         estimate D2E/DX2                !
 ! D39   D(1,6,18,21)          120.9969         estimate D2E/DX2                !
 ! D40   D(5,6,18,19)           59.1687         estimate D2E/DX2                !
 ! D41   D(5,6,18,20)         -179.9265         estimate D2E/DX2                !
 ! D42   D(5,6,18,21)          -59.0196         estimate D2E/DX2                !
 --------------------------------------------------------------------------------
 Trust Radius=3.00D-01 FncErr=1.00D-07 GrdErr=1.00D-07 EigMax=2.50D+02 EigMin=1.00D-04
 Number of steps in this run=    109 maximum allowed number of steps=    126.
 GradGradGradGradGradGradGradGradGradGradGradGradGradGradGradGradGradGrad

                          Input orientation:                          
 ---------------------------------------------------------------------
 Center     Atomic      Atomic             Coordinates (Angstroms)
 Number     Number       Type             X           Y           Z
 ---------------------------------------------------------------------
      1          6           0       -0.832961    1.204256   -0.001289
      2          6           0       -2.215431    1.210123   -0.001407
      3          6           0       -2.859300   -0.010177   -0.001331
      4          6           0       -2.141793   -1.204259    0.001316
      5          6           0       -0.775355   -1.122884    0.001464
      6          7           0       -0.137325    0.066115    0.000153
      7          1           0       -3.931619   -0.043265   -0.001468
      8          1           0       -0.269880    2.108998   -0.002564
      9          1           0       -0.155286   -1.990903    0.002818
     10          6           0       -2.962480    2.527931    0.002605
     11          1           0       -2.769644    3.073155    0.921736
     12          1           0       -2.653742    3.147410   -0.835090
     13          1           0       -4.031418    2.360812   -0.075926
     14          6           0       -2.847036   -2.543585    0.001310
     15          1           0       -3.474241   -2.641443    0.880706
     16          1           0       -3.470803   -2.644377   -0.878764
     17          1           0       -2.133695   -3.356929    0.004385
     18          5           0        1.468896    0.027400    0.000028
     19         17           0        1.984665   -0.917755   -1.558559
     20         17           0        2.166247    1.778476    0.000388
     21         17           0        1.985162   -0.918469    1.557921
 ---------------------------------------------------------------------
                    Distance matrix (angstroms):
                    1          2          3          4          5
     1  C    0.000000
     2  C    1.382482   0.000000
     3  C    2.362392   1.379746   0.000000
     4  C    2.741166   2.415506   1.393074   0.000000
     5  C    2.327855   2.741669   2.362404   1.368859   0.000000
     6  N    1.333895   2.372189   2.723044   2.373129   1.349371
     7  H    3.340358   2.125155   1.072829   2.133399   3.335804
     8  H    1.065655   2.143163   3.346042   3.805489   3.271174
     9  H    3.266237   3.806676   3.351863   2.136591   1.066745
    10  C    2.507385   1.514832   2.540207   3.821357   4.255816
    11  H    2.845259   2.151798   3.219787   4.420140   4.736120
    12  H    2.790397   2.154118   3.272272   4.460795   4.739575
    13  H    3.401958   2.151150   2.645943   4.035639   4.769075
    14  C    4.254741   3.806476   2.533439   1.513658   2.512022
    15  H    4.748018   4.146961   2.842482   2.148079   3.219173
    16  H    4.747647   4.147636   2.843033   2.148197   3.217947
    17  H    4.743032   4.567787   3.424512   2.152687   2.614585
    18  B    2.585254   3.869509   4.328359   3.814978   2.521868
    19  Cl   3.855780   4.959173   5.168429   4.420741   3.177021
    20  Cl   3.053683   4.418386   5.334361   5.239839   4.131696
    21  Cl   3.857320   4.960584   5.169630   4.420006   3.175657
                    6          7          8          9         10
     6  N    0.000000
     7  H    3.795871   0.000000
     8  H    2.047181   4.247419   0.000000
     9  H    2.057098   4.249000   4.101506   0.000000
    10  C    3.747272   2.747780   2.725000   5.319793   0.000000
    11  H    4.101306   3.451748   2.834211   5.772691   1.085936
    12  H    4.065017   3.536708   2.730238   5.774654   1.086649
    13  H    4.520551   2.407299   3.770671   5.828209   1.084769
    14  C    3.762057   2.725423   5.318672   2.747904   5.072830
    15  H    4.386485   2.781718   5.797826   3.494188   5.268338
    16  H    4.385355   2.783484   5.797259   3.492401   5.271430
    17  H    3.962668   3.770005   5.774964   2.404190   5.942934
    18  B    1.606688   5.400978   2.712268   2.590661   5.088198
    19  Cl   2.810769   6.179942   4.082319   2.858135   6.227699
    20  Cl   2.870300   6.364174   2.458448   4.426933   5.183197
    21  Cl   2.810871   6.181098   4.084836   2.854817   6.227025
                   11         12         13         14         15
    11  H    0.000000
    12  H    1.762210   0.000000
    13  H    1.759214   1.758709   0.000000
    14  C    5.692183   5.755376   5.045972   0.000000
    15  H    5.758018   6.093274   5.123294   1.084573   0.000000
    16  H    6.035196   5.849298   5.100074   1.083409   1.759476
    17  H    6.526250   6.578875   6.024978   1.081847   1.754116
    18  B    5.300131   5.237178   5.975285   5.023667   5.686204
    19  Cl   6.684510   6.209975   7.010025   5.331215   6.222601
    20  Cl   5.185373   5.079793   6.225431   6.619155   7.219816
    21  Cl   6.240671   6.616442   7.044315   5.330495   5.764750
                   16         17         18         19         20
    16  H    0.000000
    17  H    1.753722   0.000000
    18  B    5.684302   4.942910   0.000000
    19  Cl   5.762419   5.035201   1.894341   0.000000
    20  Cl   7.218786   6.697903   1.884825   3.119768   0.000000
    21  Cl   6.219626   5.032350   1.894262   3.116480   3.119650
                   21
    21  Cl   0.000000
 Stoichiometry    C7H9BCl3N
 Framework group  C1[X(C7H9BCl3N)]
 Deg. of freedom    57
 Full point group                 C1      NOp   1
 Largest Abelian subgroup         C1      NOp   1
 Largest concise Abelian subgroup C1      NOp   1
                         Standard orientation:                         
 ---------------------------------------------------------------------
 Center     Atomic      Atomic             Coordinates (Angstroms)
 Number     Number       Type             X           Y           Z
 ---------------------------------------------------------------------
      1          6           0       -0.832941    1.204270   -0.001559
      2          6           0       -2.215411    1.210159   -0.001941
      3          6           0       -2.859300   -0.010131   -0.002132
      4          6           0       -2.141812   -1.204225    0.000511
      5          6           0       -0.775373   -1.122872    0.000930
      6          7           0       -0.137324    0.066117   -0.000118
      7          1           0       -3.931619   -0.043202   -0.002479
      8          1           0       -0.269846    2.109003   -0.002619
      9          1           0       -0.155318   -1.990901    0.002300
     10          6           0       -2.962440    2.527978    0.002084
     11          1           0       -2.769771    3.073090    0.921316
     12          1           0       -2.653532    3.147551   -0.835479
     13          1           0       -4.031366    2.360885   -0.076672
     14          6           0       -2.847077   -2.543539    0.000211
     15          1           0       -3.474452   -2.641491    0.879476
     16          1           0       -3.470677   -2.644218   -0.879994
     17          1           0       -2.133749   -3.356895    0.003327
     18          5           0        1.468896    0.027377    0.000060
     19         17           0        1.984949   -0.917602   -1.558540
     20         17           0        2.166275    1.778442    0.000760
     21         17           0        1.984849   -0.918685    1.557940
 ---------------------------------------------------------------------
 Rotational constants (GHZ):           0.8106370           0.4439051           0.3568971
 Standard basis: 3-21G (6D, 7F)
 There are   138 symmetry adapted cartesian basis functions of A   symmetry.
 There are   138 symmetry adapted basis functions of A   symmetry.
   138 basis functions,   243 primitive gaussians,   138 cartesian basis functions
    57 alpha electrons       57 beta electrons
       nuclear repulsion energy       974.4594945327 Hartrees.
 NAtoms=   21 NActive=   21 NUniq=   21 SFac= 1.00D+00 NAtFMM=   60 NAOKFM=F Big=F
 Integral buffers will be    131072 words long.
 Raffenetti 1 integral format.
 Two-electron integral symmetry is turned on.
 One-electron integrals computed using PRISM.
 NBasis=   138 RedAO= T EigKep=  2.12D-03  NBF=   138
 NBsUse=   138 1.00D-06 EigRej= -1.00D+00 NBFU=   138
 ExpMin= 1.24D-01 ExpMax= 1.38D+03 ExpMxC= 1.38D+03 IAcc=3 IRadAn=         5 AccDes= 0.00D+00
 Harris functional with IExCor=  205 and IRadAn=       5 diagonalized for initial guess.
 HarFok:  IExCor=  205 AccDes= 0.00D+00 IRadAn=         5 IDoV= 1 UseB2=F ITyADJ=14
 ICtDFT=  3500011 ScaDFX=  1.000000  1.000000  1.000000  1.000000
 FoFCou: FMM=F IPFlag=           0 FMFlag=      100000 FMFlg1=           0
         NFxFlg=           0 DoJE=T BraDBF=F KetDBF=T FulRan=T
         wScrn=  0.000000 ICntrl=       500 IOpCl=  0 I1Cent=   200000004 NGrid=           0
         NMat0=    1 NMatS0=      1 NMatT0=    0 NMatD0=    1 NMtDS0=    0 NMtDT0=    0
 Petite list used in FoFCou.
 Keep R1 ints in memory in canonical form, NReq=47342355.
 Requested convergence on RMS density matrix=1.00D-08 within 128 cycles.
 Requested convergence on MAX density matrix=1.00D-06.
 Requested convergence on             energy=1.00D-06.
 No special actions if energy rises.
 SCF Done:  E(RHF) =  -1719.56460092     A.U. after   14 cycles
            NFock= 14  Conv=0.72D-08     -V/T= 2.0010

 **********************************************************************

            Population analysis using the SCF Density.

 **********************************************************************

 Orbital symmetries:
       Occupied  (A) (A) (A) (A) (A) (A) (A) (A) (A) (A) (A) (A)
                 (A) (A) (A) (A) (A) (A) (A) (A) (A) (A) (A) (A)
                 (A) (A) (A) (A) (A) (A) (A) (A) (A) (A) (A) (A)
                 (A) (A) (A) (A) (A) (A) (A) (A) (A) (A) (A) (A)
                 (A) (A) (A) (A) (A) (A) (A) (A) (A)
       Virtual   (A) (A) (A) (A) (A) (A) (A) (A) (A) (A) (A) (A)
                 (A) (A) (A) (A) (A) (A) (A) (A) (A) (A) (A) (A)
                 (A) (A) (A) (A) (A) (A) (A) (A) (A) (A) (A) (A)
                 (A) (A) (A) (A) (A) (A) (A) (A) (A) (A) (A) (A)
                 (A) (A) (A) (A) (A) (A) (A) (A) (A) (A) (A) (A)
                 (A) (A) (A) (A) (A) (A) (A) (A) (A) (A) (A) (A)
                 (A) (A) (A) (A) (A) (A) (A) (A) (A)
 The electronic state is 1-A.
 Alpha  occ. eigenvalues -- -104.07274-104.06248-104.06228 -15.62653 -11.29489
 Alpha  occ. eigenvalues --  -11.29060 -11.26159 -11.25580 -11.25484 -11.21387
 Alpha  occ. eigenvalues --  -11.21143 -10.46694 -10.45743 -10.45682  -7.93005
 Alpha  occ. eigenvalues --   -7.92676  -7.92643  -7.92048  -7.92035  -7.91705
 Alpha  occ. eigenvalues --   -7.91700  -7.91695  -7.91678  -7.71405  -1.37750
 Alpha  occ. eigenvalues --   -1.18646  -1.14127  -1.10679  -1.05918  -1.04858
 Alpha  occ. eigenvalues --   -1.01692  -1.00732  -0.94009  -0.88239  -0.80754
 Alpha  occ. eigenvalues --   -0.76498  -0.72900  -0.66353  -0.65656  -0.65230
 Alpha  occ. eigenvalues --   -0.62088  -0.61494  -0.60753  -0.60028  -0.59222
 Alpha  occ. eigenvalues --   -0.55532  -0.54997  -0.52358  -0.52035  -0.45831
 Alpha  occ. eigenvalues --   -0.44943  -0.43796  -0.42966  -0.41612  -0.41377
 Alpha  occ. eigenvalues --   -0.40465  -0.39598
 Alpha virt. eigenvalues --    0.03552   0.08776   0.22358   0.23715   0.24451
 Alpha virt. eigenvalues --    0.24777   0.25545   0.26943   0.27508   0.29007
 Alpha virt. eigenvalues --    0.29573   0.30920   0.32062   0.32458   0.35372
 Alpha virt. eigenvalues --    0.35931   0.40151   0.41244   0.44107   0.46826
 Alpha virt. eigenvalues --    0.52887   0.54743   0.62155   0.65739   0.68858
 Alpha virt. eigenvalues --    0.71861   0.72734   0.76727   0.79027   0.81135
 Alpha virt. eigenvalues --    0.81465   0.82180   0.85332   0.86380   0.86726
 Alpha virt. eigenvalues --    0.87751   0.88237   0.89359   0.90474   0.91648
 Alpha virt. eigenvalues --    0.93053   0.94194   0.96092   0.97566   0.97837
 Alpha virt. eigenvalues --    1.01018   1.02177   1.06988   1.10972   1.11601
 Alpha virt. eigenvalues --    1.14395   1.15411   1.16080   1.16618   1.18888
 Alpha virt. eigenvalues --    1.20276   1.29480   1.29864   1.31036   1.31236
 Alpha virt. eigenvalues --    1.31670   1.32402   1.33213   1.36035   1.40901
 Alpha virt. eigenvalues --    1.48064   1.53379   1.55691   1.58273   1.66836
 Alpha virt. eigenvalues --    1.68897   1.74698   1.79695   1.87770   1.91254
 Alpha virt. eigenvalues --    2.12367   2.17969   2.19533   2.23742   2.30911
 Alpha virt. eigenvalues --    3.22814
     Molecular Orbital Coefficients:
                           1         2         3         4         5
                           O         O         O         O         O
     Eigenvalues --  -104.07274-104.06248-104.06228 -15.62653 -11.29489
   1 1   C  1S         -0.00005  -0.00000  -0.00000  -0.00015   0.98563
   2        2S         -0.00040  -0.00000  -0.00003  -0.00048   0.09764
   3        2PX         0.00016  -0.00001  -0.00004   0.00100   0.00010
   4        2PY        -0.00011  -0.00000   0.00000  -0.00076  -0.00165
   5        2PZ         0.00000  -0.00017   0.00002  -0.00000  -0.00000
   6        3S          0.00309  -0.00004  -0.00025   0.03114  -0.06707
   7        3PX        -0.00189   0.00007   0.00047  -0.00487   0.01347
   8        3PY         0.00168   0.00002   0.00011  -0.02812  -0.00286
   9        3PZ        -0.00000   0.00051  -0.00007   0.00004   0.00003
  10 2   C  1S          0.00004  -0.00000  -0.00001   0.00047  -0.00298
  11        2S          0.00025  -0.00001  -0.00005   0.00209  -0.00309
  12        2PX         0.00005  -0.00001  -0.00004   0.00005  -0.00195
  13        2PY         0.00007   0.00000   0.00002  -0.00109  -0.00036
  14        2PZ        -0.00000   0.00004  -0.00001   0.00000   0.00000
  15        3S         -0.00243   0.00007   0.00050  -0.02552   0.01809
  16        3PX        -0.00192   0.00008   0.00050  -0.01105   0.01973
  17        3PY        -0.00064  -0.00006  -0.00042   0.02726   0.00684
  18        3PZ        -0.00000  -0.00024   0.00003  -0.00003  -0.00003
  19 3   C  1S         -0.00001   0.00000   0.00001  -0.00038  -0.00402
  20        2S         -0.00004   0.00001   0.00004  -0.00177  -0.00185
  21        2PX        -0.00006  -0.00000  -0.00002   0.00009  -0.00060
  22        2PY        -0.00001   0.00000   0.00000   0.00001  -0.00084
  23        2PZ        -0.00000   0.00001  -0.00000  -0.00000   0.00000
  24        3S         -0.00020  -0.00013  -0.00097   0.03426   0.01032
  25        3PX         0.00094  -0.00007  -0.00053   0.02074   0.00586
  26        3PY        -0.00038   0.00005   0.00034   0.00076   0.00709
  27        3PZ         0.00000  -0.00006   0.00001   0.00004   0.00001
  28 4   C  1S          0.00003  -0.00000  -0.00001   0.00049   0.00018
  29        2S          0.00018  -0.00000  -0.00002   0.00220   0.00091
  30        2PX         0.00001  -0.00000  -0.00001  -0.00006  -0.00001
  31        2PY        -0.00003  -0.00001  -0.00008   0.00109   0.00003
  32        2PZ         0.00000  -0.00008   0.00001  -0.00000  -0.00000
  33        3S         -0.00236   0.00001   0.00015  -0.02601  -0.01332
  34        3PX        -0.00126  -0.00003  -0.00017  -0.00997  -0.01112
  35        3PY        -0.00035   0.00018   0.00127  -0.02736  -0.00637
  36        3PZ        -0.00000   0.00042  -0.00006   0.00003  -0.00000
  37 5   C  1S          0.00000  -0.00000   0.00000  -0.00024  -0.05066
  38        2S          0.00002   0.00000   0.00004  -0.00089  -0.00723
  39        2PX         0.00018   0.00002   0.00012   0.00094   0.00052
  40        2PY         0.00006   0.00001   0.00009   0.00103  -0.00157
  41        2PZ        -0.00000   0.00025  -0.00004  -0.00000   0.00000
  42        3S          0.00128   0.00004   0.00021   0.03231   0.01361
  43        3PX        -0.00208  -0.00005  -0.00027  -0.00679  -0.01406
  44        3PY        -0.00031  -0.00019  -0.00129   0.02585   0.00878
  45        3PZ         0.00000  -0.00070   0.00010  -0.00003  -0.00001
  46 6   N  1S         -0.00005  -0.00001  -0.00004   0.98678   0.00026
  47        2S         -0.00033  -0.00003  -0.00019   0.10717   0.00147
  48        2PX        -0.00002   0.00001   0.00007  -0.00235   0.00019
  49        2PY        -0.00006   0.00000   0.00000  -0.00002   0.00028
  50        2PZ        -0.00000   0.00000  -0.00000  -0.00000   0.00000
  51        3S          0.00179   0.00025   0.00173  -0.09297  -0.00311
  52        3PX         0.00038   0.00002   0.00016   0.01638   0.00067
  53        3PY         0.00064  -0.00007  -0.00051   0.00007  -0.00367
  54        3PZ         0.00000   0.00041  -0.00006   0.00000   0.00000
  55 7   H  1S          0.00013  -0.00000  -0.00001   0.00064   0.00011
  56        2S          0.00034  -0.00002  -0.00011   0.00484   0.00223
  57 8   H  1S          0.00035  -0.00001  -0.00005   0.00060  -0.00211
  58        2S         -0.00234  -0.00002  -0.00014   0.00863   0.01326
  59 9   H  1S          0.00022   0.00004   0.00030   0.00072   0.00121
  60        2S         -0.00048  -0.00017  -0.00110   0.00629   0.00577
  61 10  C  1S         -0.00000  -0.00000  -0.00001   0.00007  -0.00157
  62        2S          0.00002  -0.00000  -0.00003   0.00007  -0.00093
  63        2PX         0.00002   0.00000  -0.00000  -0.00078  -0.00078
  64        2PY        -0.00003  -0.00000  -0.00002   0.00067   0.00042
  65        2PZ        -0.00000  -0.00002   0.00000  -0.00002  -0.00002
  66        3S          0.00010   0.00004   0.00030  -0.01107  -0.00003
  67        3PX         0.00032  -0.00000   0.00006  -0.00119  -0.00085
  68        3PY         0.00004  -0.00003  -0.00011   0.00426  -0.00150
  69        3PZ         0.00000   0.00014  -0.00002   0.00016   0.00011
  70 11  H  1S         -0.00004  -0.00001  -0.00001   0.00017  -0.00012
  71        2S          0.00002  -0.00007   0.00001  -0.00011   0.00027
  72 12  H  1S         -0.00005   0.00000  -0.00002   0.00015  -0.00010
  73        2S          0.00003   0.00008  -0.00001   0.00003   0.00044
  74 13  H  1S          0.00003   0.00000  -0.00001   0.00039  -0.00017
  75        2S          0.00007  -0.00001  -0.00001   0.00094   0.00036
  76 14  C  1S          0.00000  -0.00000  -0.00001   0.00010  -0.00033
  77        2S          0.00004  -0.00000  -0.00003   0.00027  -0.00013
  78        2PX         0.00001   0.00000   0.00003  -0.00056  -0.00009
  79        2PY         0.00002   0.00000   0.00002  -0.00078  -0.00025
  80        2PZ        -0.00000   0.00000  -0.00000   0.00000   0.00000
  81        3S         -0.00017   0.00008   0.00054  -0.01153  -0.00297
  82        3PX         0.00012   0.00003   0.00019  -0.00216   0.00034
  83        3PY        -0.00015   0.00004   0.00024  -0.00348  -0.00177
  84        3PZ         0.00000  -0.00012   0.00002  -0.00002  -0.00000
  85 15  H  1S          0.00001   0.00002  -0.00002   0.00034   0.00008
  86        2S          0.00002   0.00000   0.00001   0.00019   0.00016
  87 16  H  1S          0.00001  -0.00003  -0.00001   0.00034   0.00008
  88        2S          0.00002  -0.00000   0.00001   0.00018   0.00016
  89 17  H  1S         -0.00002  -0.00001  -0.00005   0.00009   0.00003
  90        2S         -0.00005   0.00001   0.00006   0.00115  -0.00066
  91 18  B  1S          0.00007   0.00003   0.00020  -0.00080  -0.00049
  92        2S          0.00049   0.00024   0.00169  -0.00324  -0.00325
  93        2PX         0.00039   0.00002   0.00013  -0.00154   0.00114
  94        2PY         0.00014   0.00000   0.00002   0.00012  -0.00018
  95        2PZ         0.00000   0.00009  -0.00001   0.00000   0.00000
  96        3S         -0.00525  -0.00130  -0.00893   0.01822   0.00939
  97        3PX        -0.00220  -0.00019  -0.00126  -0.00529  -0.00406
  98        3PY        -0.00521   0.00035   0.00242   0.00078   0.00394
  99        3PZ        -0.00000  -0.00492   0.00072   0.00000  -0.00001
 100 19  Cl 1S         -0.00771  -0.58919   0.79042   0.00000  -0.00000
 101        2S         -0.00046  -0.03178   0.04255   0.00001   0.00001
 102        2PX        -0.00001   0.00005  -0.00006  -0.00001   0.00002
 103        2PY        -0.00005  -0.00007   0.00007   0.00006  -0.00001
 104        2PZ        -0.00002  -0.00015   0.00011   0.00005   0.00002
 105        3S          0.00044   0.01193  -0.01555   0.00126   0.00036
 106        3PX         0.00002  -0.00020   0.00024  -0.00004  -0.00017
 107        3PY         0.00022   0.00029  -0.00029  -0.00026   0.00010
 108        3PZ         0.00013   0.00064  -0.00043  -0.00020  -0.00013
 109        4S         -0.00047  -0.00867   0.01158  -0.00451  -0.00085
 110        4PX         0.00028   0.00086  -0.00101   0.00195   0.00103
 111        4PY         0.00022  -0.00142   0.00151  -0.00089  -0.00093
 112        4PZ        -0.00034  -0.00194   0.00282  -0.00176   0.00009
 113 20  Cl 1S          0.98581   0.00159   0.01081   0.00001  -0.00004
 114        2S          0.05317   0.00008   0.00052  -0.00007   0.00008
 115        2PX        -0.00015   0.00000   0.00001   0.00006   0.00006
 116        2PY        -0.00020   0.00001   0.00006  -0.00005  -0.00006
 117        2PZ        -0.00000  -0.00003   0.00000   0.00000   0.00000
 118        3S         -0.02028   0.00000   0.00003   0.00242   0.00236
 119        3PX         0.00063  -0.00001  -0.00005  -0.00053  -0.00054
 120        3PY         0.00082  -0.00004  -0.00031   0.00017   0.00033
 121        3PZ         0.00000   0.00013  -0.00002  -0.00000  -0.00000
 122        4S          0.01604   0.00009   0.00060  -0.00653  -0.00652
 123        4PX        -0.00239   0.00000   0.00002   0.00357   0.00365
 124        4PY        -0.00425  -0.00004  -0.00028   0.00223   0.00132
 125        4PZ        -0.00000   0.00041  -0.00006   0.00000   0.00001
 126 21  Cl 1S         -0.00773   0.79044   0.58915   0.00000  -0.00000
 127        2S         -0.00046   0.04261   0.03169   0.00001   0.00001
 128        2PX        -0.00001  -0.00007  -0.00005  -0.00001   0.00002
 129        2PY        -0.00005   0.00009   0.00005   0.00006  -0.00001
 130        2PZ         0.00002  -0.00018  -0.00007  -0.00005  -0.00002
 131        3S          0.00044  -0.01587  -0.01150   0.00127   0.00036
 132        3PX         0.00002   0.00026   0.00017  -0.00004  -0.00017
 133        3PY         0.00022  -0.00036  -0.00020  -0.00026   0.00010
 134        3PZ        -0.00013   0.00073   0.00023   0.00020   0.00013
 135        4S         -0.00047   0.01162   0.00862  -0.00451  -0.00083
 136        4PX         0.00027  -0.00111  -0.00073   0.00195   0.00102
 137        4PY         0.00022   0.00180   0.00105  -0.00089  -0.00092
 138        4PZ         0.00034  -0.00266  -0.00215   0.00176  -0.00010
                           6         7         8         9        10
                           O         O         O         O         O
     Eigenvalues --   -11.29060 -11.26159 -11.25580 -11.25484 -11.21387
   1 1   C  1S          0.05001   0.00394   0.00268   0.00032   0.00146
   2        2S          0.00266  -0.00042  -0.00332  -0.00025  -0.00087
   3        2PX         0.00047   0.00105   0.00180   0.00032   0.00064
   4        2PY         0.00150   0.00046  -0.00011  -0.00000  -0.00056
   5        2PZ        -0.00000   0.00000   0.00000  -0.00000  -0.00002
   6        3S          0.00717  -0.00768   0.03161   0.00667   0.00437
   7        3PX        -0.01178   0.00172  -0.01734  -0.00412  -0.00601
   8        3PY        -0.01113   0.00527  -0.00590  -0.00273  -0.00008
   9        3PZ         0.00001  -0.00001  -0.00002   0.00001   0.00009
  10 2   C  1S         -0.00017  -0.02867   0.98595   0.04671   0.00197
  11        2S          0.00060  -0.00704   0.10060   0.00492  -0.00119
  12        2PX        -0.00024   0.00024   0.00049   0.00031   0.00063
  13        2PY        -0.00012   0.00208  -0.00080   0.00070  -0.00066
  14        2PZ        -0.00000   0.00000   0.00000   0.00000   0.00002
  15        3S         -0.01170   0.03811  -0.09611  -0.01322   0.01448
  16        3PX        -0.00914   0.00027  -0.00618  -0.00427  -0.01272
  17        3PY         0.00771  -0.02947   0.01311   0.00435   0.01556
  18        3PZ        -0.00001  -0.00001   0.00007  -0.00001  -0.00006
  19 3   C  1S         -0.00526   0.98663   0.02665   0.02712   0.00228
  20        2S         -0.00218   0.10026  -0.00127  -0.00123  -0.00049
  21        2PX        -0.00078   0.00149  -0.00088  -0.00093   0.00020
  22        2PY         0.00076   0.00006  -0.00143   0.00111  -0.00068
  23        2PZ        -0.00000   0.00000   0.00000  -0.00000  -0.00002
  24        3S          0.01192  -0.10207   0.03154   0.03051   0.00124
  25        3PX         0.00750  -0.02840   0.01375   0.01464   0.00227
  26        3PY        -0.00539  -0.00135   0.01433  -0.01018   0.00054
  27        3PZ         0.00002  -0.00005  -0.00002   0.00003   0.00010
  28 4   C  1S         -0.00232  -0.02653  -0.04722   0.98599   0.00099
  29        2S         -0.00303  -0.00659  -0.00460   0.10067  -0.00029
  30        2PX        -0.00218   0.00026   0.00028   0.00071   0.00000
  31        2PY         0.00018  -0.00194  -0.00067   0.00065  -0.00047
  32        2PZ        -0.00000   0.00000  -0.00000  -0.00001   0.00001
  33        3S          0.01672   0.03650  -0.00443  -0.09754  -0.00076
  34        3PX         0.01888  -0.00092  -0.00367  -0.01077   0.00061
  35        3PY        -0.00560   0.02882  -0.00423  -0.01139   0.00274
  36        3PZ         0.00002  -0.00004   0.00002   0.00005  -0.00007
  37 5   C  1S          0.98555   0.00471   0.00021   0.00205   0.00032
  38        2S          0.09693  -0.00041   0.00006  -0.00361  -0.00021
  39        2PX         0.00001   0.00108   0.00013   0.00208   0.00022
  40        2PY         0.00164  -0.00037  -0.00004   0.00018  -0.00016
  41        2PZ        -0.00000   0.00000   0.00000   0.00000   0.00000
  42        3S         -0.06466  -0.00775   0.00393   0.03560   0.00035
  43        3PX         0.01173   0.00189  -0.00294  -0.02129  -0.00009
  44        3PY         0.00231  -0.00545   0.00249   0.00458   0.00012
  45        3PZ         0.00000   0.00000  -0.00001  -0.00002   0.00003
  46 6   N  1S          0.00023  -0.00010   0.00016   0.00018  -0.00004
  47        2S          0.00128  -0.00081   0.00082   0.00101  -0.00041
  48        2PX         0.00003   0.00018  -0.00007  -0.00006   0.00021
  49        2PY        -0.00027   0.00003  -0.00020   0.00014  -0.00029
  50        2PZ        -0.00000   0.00000  -0.00000  -0.00000   0.00001
  51        3S         -0.00157   0.00631  -0.00638  -0.00699   0.00128
  52        3PX         0.00152  -0.00233   0.00421   0.00431  -0.00081
  53        3PY         0.00234  -0.00023  -0.00075   0.00102   0.00169
  54        3PZ         0.00000   0.00000   0.00001   0.00000  -0.00005
  55 7   H  1S          0.00020  -0.00240  -0.00053  -0.00045   0.00025
  56        2S          0.00258   0.00531   0.00280   0.00270   0.00009
  57 8   H  1S          0.00110  -0.00036  -0.00027   0.00013  -0.00008
  58        2S          0.00747  -0.00030   0.00179   0.00131   0.00121
  59 9   H  1S         -0.00165  -0.00036   0.00021  -0.00034  -0.00007
  60        2S          0.01079  -0.00046   0.00131   0.00227   0.00016
  61 10  C  1S         -0.00040  -0.00238  -0.00234  -0.00129   0.98752
  62        2S         -0.00011  -0.00123  -0.00153  -0.00066   0.10232
  63        2PX        -0.00019   0.00010   0.00012  -0.00001   0.00014
  64        2PY         0.00033   0.00009   0.00059   0.00031  -0.00006
  65        2PZ         0.00000  -0.00001   0.00009  -0.00001   0.00001
  66        3S         -0.00373   0.00881   0.01040   0.00028  -0.08620
  67        3PX         0.00002   0.00388   0.00178  -0.00002  -0.00321
  68        3PY         0.00166  -0.00220  -0.00827  -0.00113   0.00630
  69        3PZ         0.00002   0.00001  -0.00052   0.00005  -0.00000
  70 11  H  1S          0.00006  -0.00037  -0.00102  -0.00006   0.00036
  71        2S         -0.00014  -0.00036   0.00277   0.00018   0.01446
  72 12  H  1S          0.00006  -0.00040  -0.00096  -0.00003   0.00038
  73        2S         -0.00019  -0.00036   0.00215   0.00024   0.01435
  74 13  H  1S          0.00015  -0.00001  -0.00076  -0.00034   0.00037
  75        2S          0.00044   0.00021  -0.00137   0.00042   0.01452
  76 14  C  1S         -0.00166  -0.00178  -0.00138  -0.00226  -0.01021
  77        2S         -0.00095  -0.00099  -0.00069  -0.00153  -0.00139
  78        2PX        -0.00062   0.00007   0.00014  -0.00056   0.00005
  79        2PY        -0.00048  -0.00011  -0.00037  -0.00024  -0.00001
  80        2PZ         0.00000  -0.00000   0.00000  -0.00000  -0.00000
  81        3S          0.00023   0.00801  -0.00065   0.01031   0.00296
  82        3PX        -0.00155   0.00392  -0.00136   0.00637   0.00056
  83        3PY         0.00191   0.00247   0.00076   0.00580   0.00108
  84        3PZ        -0.00001   0.00002  -0.00001  -0.00001   0.00004
  85 15  H  1S         -0.00011  -0.00018  -0.00020  -0.00098  -0.00013
  86        2S         -0.00012   0.00033  -0.00027   0.00254  -0.00014
  87 16  H  1S         -0.00011  -0.00017  -0.00021  -0.00099  -0.00012
  88        2S         -0.00013   0.00034  -0.00028   0.00254  -0.00011
  89 17  H  1S         -0.00003  -0.00052   0.00015  -0.00081  -0.00012
  90        2S          0.00117  -0.00027   0.00074  -0.00143  -0.00007
  91 18  B  1S         -0.00032  -0.00004  -0.00011  -0.00020  -0.00007
  92        2S         -0.00230  -0.00030  -0.00077  -0.00128  -0.00047
  93        2PX         0.00108   0.00006   0.00028   0.00029   0.00000
  94        2PY         0.00004  -0.00000  -0.00014   0.00024  -0.00018
  95        2PZ         0.00000  -0.00000  -0.00000   0.00000   0.00001
  96        3S          0.00444   0.00138   0.00047   0.00226   0.00158
  97        3PX        -0.00388  -0.00066  -0.00048  -0.00136  -0.00076
  98        3PY        -0.00249   0.00029   0.00081  -0.00406   0.00027
  99        3PZ         0.00000   0.00000  -0.00000  -0.00001  -0.00002
 100 19  Cl 1S          0.00001   0.00000  -0.00000  -0.00000  -0.00000
 101        2S         -0.00001   0.00000   0.00000   0.00001   0.00001
 102        2PX        -0.00006  -0.00000   0.00001  -0.00001   0.00000
 103        2PY         0.00004   0.00001  -0.00001   0.00000  -0.00000
 104        2PZ         0.00000   0.00000   0.00000   0.00001   0.00000
 105        3S          0.00019   0.00002   0.00007   0.00021   0.00011
 106        3PX         0.00032   0.00000  -0.00005   0.00007  -0.00003
 107        3PY        -0.00026  -0.00003   0.00008  -0.00003   0.00002
 108        3PZ         0.00000  -0.00001  -0.00001  -0.00008  -0.00002
 109        4S         -0.00139  -0.00013   0.00005  -0.00143  -0.00031
 110        4PX         0.00052   0.00011   0.00014   0.00025   0.00022
 111        4PY         0.00046  -0.00002  -0.00022   0.00005  -0.00015
 112        4PZ        -0.00088  -0.00004   0.00014  -0.00077  -0.00008
 113 20  Cl 1S          0.00000  -0.00001   0.00002   0.00001   0.00001
 114        2S         -0.00000   0.00001  -0.00003  -0.00003  -0.00001
 115        2PX         0.00003   0.00001  -0.00005  -0.00000  -0.00001
 116        2PY        -0.00002  -0.00000  -0.00002  -0.00001  -0.00001
 117        2PZ         0.00000   0.00000   0.00000  -0.00000  -0.00000
 118        3S         -0.00016   0.00026  -0.00066  -0.00070  -0.00015
 119        3PX        -0.00023  -0.00010   0.00036   0.00002   0.00011
 120        3PY         0.00018   0.00001   0.00015   0.00010   0.00009
 121        3PZ        -0.00000  -0.00000  -0.00000   0.00000   0.00000
 122        4S          0.00106  -0.00063   0.00065   0.00251  -0.00004
 123        4PX         0.00071   0.00042  -0.00079  -0.00045  -0.00009
 124        4PY        -0.00102   0.00018  -0.00021  -0.00115  -0.00004
 125        4PZ        -0.00000  -0.00000   0.00000   0.00000  -0.00000
 126 21  Cl 1S          0.00001   0.00000  -0.00000  -0.00000  -0.00000
 127        2S         -0.00001   0.00000   0.00000   0.00001   0.00000
 128        2PX        -0.00006  -0.00000   0.00001  -0.00001   0.00000
 129        2PY         0.00004   0.00001  -0.00001   0.00000  -0.00000
 130        2PZ        -0.00000  -0.00000  -0.00000  -0.00001  -0.00000
 131        3S          0.00019   0.00002   0.00007   0.00020   0.00011
 132        3PX         0.00032   0.00000  -0.00005   0.00007  -0.00003
 133        3PY        -0.00026  -0.00003   0.00008  -0.00003   0.00002
 134        3PZ        -0.00001   0.00001   0.00001   0.00008   0.00002
 135        4S         -0.00140  -0.00013   0.00005  -0.00141  -0.00029
 136        4PX         0.00053   0.00011   0.00014   0.00024   0.00021
 137        4PY         0.00046  -0.00003  -0.00022   0.00005  -0.00014
 138        4PZ         0.00088   0.00004  -0.00014   0.00076   0.00007
                          11        12        13        14        15
                           O         O         O         O         O
     Eigenvalues --   -11.21143 -10.46694 -10.45743 -10.45682  -7.93005
   1 1   C  1S          0.00040   0.00011  -0.00000  -0.00002  -0.00002
   2        2S         -0.00031   0.00199   0.00001   0.00023   0.00023
   3        2PX         0.00016  -0.00079   0.00000   0.00014   0.00094
   4        2PY         0.00019   0.00054   0.00000   0.00002   0.00013
   5        2PZ        -0.00000  -0.00000   0.00091  -0.00004   0.00000
   6        3S          0.00101  -0.01623   0.00003   0.00021   0.00394
   7        3PX        -0.00118   0.00946  -0.00009  -0.00179  -0.00634
   8        3PY         0.00098  -0.00919  -0.00002  -0.00032  -0.00125
   9        3PZ         0.00000   0.00002  -0.00284   0.00013  -0.00001
  10 2   C  1S          0.00129  -0.00010   0.00000   0.00002   0.00007
  11        2S         -0.00053  -0.00120   0.00001   0.00018   0.00050
  12        2PX         0.00011  -0.00025   0.00001   0.00018   0.00014
  13        2PY         0.00048  -0.00035  -0.00000  -0.00011  -0.00015
  14        2PZ         0.00000   0.00000  -0.00020   0.00001  -0.00000
  15        3S          0.00221   0.01243  -0.00007  -0.00167  -0.00551
  16        3PX        -0.00214   0.00977  -0.00012  -0.00199  -0.00484
  17        3PY        -0.00446   0.00351   0.00006   0.00192   0.00210
  18        3PZ        -0.00001   0.00000   0.00132  -0.00006   0.00001
  19 3   C  1S          0.00175   0.00001  -0.00000  -0.00004  -0.00001
  20        2S         -0.00040   0.00020  -0.00001  -0.00019  -0.00004
  21        2PX         0.00018   0.00034   0.00001   0.00011  -0.00002
  22        2PY         0.00083   0.00005  -0.00000  -0.00003   0.00016
  23        2PZ        -0.00000   0.00000  -0.00003   0.00000  -0.00000
  24        3S          0.00079   0.00120   0.00017   0.00464   0.00085
  25        3PX         0.00225  -0.00494   0.00009   0.00240   0.00183
  26        3PY        -0.00526   0.00187  -0.00008  -0.00163  -0.00061
  27        3PZ         0.00002  -0.00001   0.00030  -0.00001   0.00000
  28 4   C  1S          0.00182  -0.00010   0.00000   0.00002   0.00002
  29        2S         -0.00117  -0.00091  -0.00000   0.00010   0.00010
  30        2PX         0.00019  -0.00006   0.00000   0.00009   0.00008
  31        2PY         0.00088   0.00012   0.00002   0.00042  -0.00006
  32        2PZ         0.00000  -0.00000   0.00040  -0.00002   0.00000
  33        3S          0.01405   0.01285   0.00004  -0.00036  -0.00184
  34        3PX        -0.00747   0.00710   0.00005   0.00088  -0.00041
  35        3PY        -0.01838   0.00194  -0.00028  -0.00635   0.00016
  36        3PZ         0.00000   0.00000  -0.00226   0.00011  -0.00000
  37 5   C  1S          0.00154   0.00001   0.00000   0.00008   0.00005
  38        2S         -0.00078  -0.00010  -0.00000  -0.00015   0.00023
  39        2PX         0.00062  -0.00096  -0.00003  -0.00059  -0.00006
  40        2PY         0.00059  -0.00031  -0.00002  -0.00047   0.00001
  41        2PZ         0.00000   0.00000  -0.00128   0.00006  -0.00000
  42        3S          0.00312  -0.00717  -0.00011  -0.00166  -0.00156
  43        3PX        -0.00309   0.01160   0.00009   0.00134  -0.00150
  44        3PY         0.00165   0.00144   0.00032   0.00659  -0.00277
  45        3PZ        -0.00000  -0.00001   0.00381  -0.00017   0.00001
  46 6   N  1S         -0.00002   0.00022   0.00001   0.00022   0.00000
  47        2S         -0.00024   0.00161   0.00005   0.00105   0.00021
  48        2PX         0.00023   0.00013  -0.00001  -0.00025   0.00042
  49        2PY         0.00011   0.00032  -0.00000  -0.00002   0.00046
  50        2PZ        -0.00000   0.00000   0.00006  -0.00000  -0.00000
  51        3S          0.00030  -0.00944  -0.00045  -0.00962   0.00108
  52        3PX        -0.00085  -0.00214  -0.00007  -0.00180  -0.00151
  53        3PY         0.00007  -0.00361   0.00013   0.00275  -0.00167
  54        3PZ         0.00000  -0.00000  -0.00253   0.00011   0.00000
  55 7   H  1S         -0.00008  -0.00066   0.00000   0.00004   0.00019
  56        2S          0.00116  -0.00184   0.00002   0.00050   0.00054
  57 8   H  1S         -0.00012  -0.00179   0.00000   0.00016   0.00026
  58        2S         -0.00001   0.01298   0.00006   0.00095   0.00101
  59 9   H  1S          0.00032  -0.00112  -0.00008  -0.00157   0.00019
  60        2S         -0.00002   0.00250   0.00030   0.00596  -0.00185
  61 10  C  1S          0.01010   0.00004   0.00000   0.00002   0.00003
  62        2S          0.00075  -0.00007   0.00000   0.00015   0.00023
  63        2PX         0.00001  -0.00009  -0.00001   0.00001   0.00003
  64        2PY         0.00005   0.00016  -0.00000   0.00007   0.00003
  65        2PZ        -0.00001   0.00001   0.00008  -0.00000   0.00000
  66        3S          0.00087  -0.00068  -0.00004  -0.00141  -0.00176
  67        3PX         0.00115  -0.00177   0.00004  -0.00039  -0.00015
  68        3PY        -0.00056  -0.00018   0.00007   0.00053   0.00097
  69        3PZ         0.00003  -0.00003  -0.00075   0.00003  -0.00003
  70 11  H  1S         -0.00010   0.00020   0.00003   0.00007   0.00006
  71        2S          0.00004  -0.00009   0.00038  -0.00000  -0.00003
  72 12  H  1S         -0.00010   0.00026  -0.00002   0.00008   0.00006
  73        2S          0.00006  -0.00013  -0.00043   0.00002  -0.00009
  74 13  H  1S         -0.00008  -0.00016  -0.00001   0.00003   0.00012
  75        2S          0.00067  -0.00041   0.00003   0.00002   0.00001
  76 14  C  1S          0.98752   0.00001   0.00000   0.00005   0.00000
  77        2S          0.10236  -0.00018   0.00001   0.00015   0.00007
  78        2PX        -0.00005  -0.00004  -0.00001  -0.00013   0.00005
  79        2PY         0.00017  -0.00008  -0.00001  -0.00012   0.00004
  80        2PZ         0.00000   0.00000  -0.00003   0.00000   0.00000
  81        3S         -0.08631   0.00094  -0.00013  -0.00275   0.00007
  82        3PX        -0.00322  -0.00067  -0.00004  -0.00097  -0.00009
  83        3PY        -0.00619   0.00087  -0.00006  -0.00126   0.00008
  84        3PZ        -0.00001  -0.00000   0.00068  -0.00003   0.00000
  85 15  H  1S          0.00038  -0.00008  -0.00013   0.00009  -0.00000
  86        2S          0.01452  -0.00012  -0.00003  -0.00005  -0.00003
  87 16  H  1S          0.00036  -0.00008   0.00014   0.00008  -0.00000
  88        2S          0.01454  -0.00013   0.00003  -0.00005  -0.00003
  89 17  H  1S          0.00030   0.00013   0.00001   0.00026  -0.00000
  90        2S          0.01448   0.00032  -0.00002  -0.00035   0.00008
  91 18  B  1S         -0.00008  -0.00051  -0.00007  -0.00150   0.00028
  92        2S         -0.00049  -0.00305  -0.00045  -0.01014  -0.00135
  93        2PX        -0.00006  -0.00214  -0.00004  -0.00087   0.00070
  94        2PY         0.00016  -0.00092  -0.00000   0.00005   0.00100
  95        2PZ         0.00000  -0.00000  -0.00066   0.00003   0.00000
  96        3S          0.00176   0.03031   0.00245   0.05454  -0.00491
  97        3PX        -0.00077   0.01251   0.00036   0.00761  -0.00431
  98        3PY        -0.00119   0.03059  -0.00064  -0.01432  -0.00837
  99        3PZ        -0.00000   0.00002   0.02899  -0.00131  -0.00001
 100 19  Cl 1S          0.00000   0.00777   0.20631  -0.22576   0.00007
 101        2S          0.00000  -0.02483  -0.66278   0.72549  -0.00031
 102        2PX        -0.00001   0.00010   0.00197  -0.00217  -0.00009
 103        2PY        -0.00000   0.00007  -0.00244   0.00273   0.00656
 104        2PZ         0.00001  -0.00008  -0.00415   0.00483   0.00358
 105        3S          0.00010  -0.00509  -0.09903   0.10643   0.00201
 106        3PX         0.00005  -0.00006   0.00166  -0.00165   0.00000
 107        3PY         0.00001  -0.00117  -0.00228   0.00198   0.00138
 108        3PZ        -0.00004  -0.00078  -0.00458   0.00307   0.00070
 109        4S         -0.00064   0.00374   0.05716  -0.06310  -0.00372
 110        4PX         0.00014  -0.00170  -0.00559   0.00546   0.00068
 111        4PY        -0.00009  -0.00141   0.00918  -0.00810  -0.00192
 112        4PZ        -0.00032   0.00214   0.01277  -0.01572  -0.00184
 113 20  Cl 1S          0.00001  -0.30567  -0.00051  -0.01108  -0.00310
 114        2S         -0.00001   0.98198   0.00166   0.03580   0.01077
 115        2PX        -0.00000  -0.00420  -0.00001  -0.00019   0.36017
 116        2PY        -0.00001  -0.00696  -0.00002  -0.00049   0.90406
 117        2PZ        -0.00000  -0.00000   0.00010  -0.00000   0.00033
 118        3S         -0.00020   0.14903   0.00020   0.00418  -0.00695
 119        3PX         0.00002  -0.00431   0.00000   0.00013   0.03099
 120        3PY         0.00006  -0.00606   0.00007   0.00145   0.07714
 121        3PZ         0.00000  -0.00000  -0.00063   0.00003   0.00003
 122        4S          0.00059  -0.09360  -0.00029  -0.00599   0.01428
 123        4PX        -0.00008   0.01379   0.00002   0.00024  -0.01253
 124        4PY        -0.00027   0.02485   0.00012   0.00251  -0.03068
 125        4PZ         0.00000   0.00001  -0.00261   0.00012  -0.00001
 126 21  Cl 1S          0.00000   0.00778  -0.22583  -0.20622   0.00007
 127        2S          0.00000  -0.02488   0.72552   0.66274  -0.00031
 128        2PX        -0.00001   0.00010  -0.00216  -0.00199  -0.00009
 129        2PY        -0.00000   0.00007   0.00268   0.00250   0.00659
 130        2PZ        -0.00001   0.00008  -0.00457  -0.00444  -0.00360
 131        3S          0.00010  -0.00509   0.10824   0.09707   0.00201
 132        3PX         0.00005  -0.00006  -0.00180  -0.00149   0.00001
 133        3PY         0.00001  -0.00117   0.00246   0.00176   0.00139
 134        3PZ         0.00004   0.00078  -0.00484  -0.00264  -0.00070
 135        4S         -0.00063   0.00372  -0.06261  -0.05770  -0.00372
 136        4PX         0.00014  -0.00170   0.00606   0.00494   0.00068
 137        4PY        -0.00009  -0.00142  -0.00989  -0.00725  -0.00192
 138        4PZ         0.00031  -0.00213   0.01412   0.01450   0.00184
                          16        17        18        19        20
                           O         O         O         O         O
     Eigenvalues --    -7.92676  -7.92643  -7.92048  -7.92035  -7.91705
   1 1   C  1S         -0.00014   0.00000   0.00001  -0.00005  -0.00002
   2        2S         -0.00095  -0.00000   0.00006  -0.00025  -0.00015
   3        2PX         0.00068  -0.00000  -0.00004   0.00018   0.00000
   4        2PY        -0.00044  -0.00000   0.00001  -0.00003   0.00005
   5        2PZ         0.00000  -0.00022  -0.00024  -0.00005   0.00002
   6        3S          0.01050  -0.00001  -0.00101   0.00447   0.00060
   7        3PX        -0.00648   0.00002   0.00055  -0.00244   0.00104
   8        3PY         0.00700   0.00001   0.00062  -0.00278  -0.00064
   9        3PZ        -0.00001   0.00105   0.00148   0.00033   0.00004
  10 2   C  1S          0.00009  -0.00000  -0.00001   0.00005   0.00000
  11        2S          0.00057  -0.00000  -0.00005   0.00024   0.00002
  12        2PX         0.00004  -0.00000  -0.00000   0.00000  -0.00002
  13        2PY         0.00020   0.00000   0.00003  -0.00013  -0.00002
  14        2PZ         0.00000   0.00010   0.00007   0.00001  -0.00005
  15        3S         -0.00633   0.00002   0.00061  -0.00274  -0.00013
  16        3PX        -0.00638   0.00002   0.00065  -0.00281   0.00075
  17        3PY        -0.00393  -0.00001  -0.00041   0.00189   0.00058
  18        3PZ        -0.00001  -0.00064  -0.00064  -0.00015   0.00023
  19 3   C  1S         -0.00001  -0.00000   0.00001  -0.00003   0.00001
  20        2S         -0.00013  -0.00000   0.00003  -0.00015   0.00001
  21        2PX        -0.00013  -0.00000  -0.00001   0.00003  -0.00007
  22        2PY         0.00004   0.00000  -0.00002   0.00011   0.00001
  23        2PZ        -0.00000  -0.00002  -0.00001  -0.00000   0.00002
  24        3S         -0.00055   0.00000  -0.00066   0.00306  -0.00119
  25        3PX         0.00138  -0.00000  -0.00026   0.00120  -0.00001
  26        3PY        -0.00347  -0.00000   0.00039  -0.00174   0.00151
  27        3PZ         0.00001   0.00021   0.00001   0.00001  -0.00041
  28 4   C  1S          0.00000   0.00000   0.00000  -0.00002   0.00002
  29        2S         -0.00004   0.00000   0.00005  -0.00021   0.00015
  30        2PX        -0.00005  -0.00000   0.00002  -0.00009  -0.00004
  31        2PY         0.00006  -0.00000  -0.00002   0.00011  -0.00018
  32        2PZ        -0.00000  -0.00001  -0.00014  -0.00003  -0.00020
  33        3S         -0.00007  -0.00001  -0.00047   0.00203  -0.00292
  34        3PX         0.00253  -0.00000  -0.00081   0.00360  -0.00260
  35        3PY        -0.00222  -0.00000   0.00057  -0.00260   0.00282
  36        3PZ         0.00000  -0.00002   0.00067   0.00015   0.00122
  37 5   C  1S         -0.00002   0.00000   0.00000  -0.00001   0.00001
  38        2S         -0.00036   0.00000   0.00010  -0.00045   0.00032
  39        2PX        -0.00034   0.00000   0.00020  -0.00090   0.00063
  40        2PY        -0.00029  -0.00000   0.00006  -0.00029   0.00030
  41        2PZ        -0.00000   0.00013   0.00044   0.00010   0.00060
  42        3S         -0.00030  -0.00000   0.00042  -0.00183   0.00240
  43        3PX         0.00288  -0.00001  -0.00106   0.00469  -0.00423
  44        3PY         0.00214   0.00000  -0.00076   0.00343  -0.00490
  45        3PZ        -0.00000  -0.00007  -0.00096  -0.00022  -0.00192
  46 6   N  1S         -0.00010  -0.00000   0.00001  -0.00005  -0.00005
  47        2S         -0.00062  -0.00000   0.00016  -0.00075  -0.00022
  48        2PX         0.00009   0.00000   0.00019  -0.00083   0.00012
  49        2PY         0.00011   0.00000  -0.00007   0.00033   0.00007
  50        2PZ         0.00000   0.00034   0.00050   0.00011   0.00018
  51        3S          0.00465  -0.00000   0.00030  -0.00134   0.00347
  52        3PX         0.00015  -0.00000  -0.00095   0.00426  -0.00065
  53        3PY         0.00155  -0.00000   0.00016  -0.00070  -0.00201
  54        3PZ        -0.00000  -0.00184  -0.00135  -0.00030  -0.00050
  55 7   H  1S          0.00019   0.00000   0.00000  -0.00002   0.00007
  56        2S          0.00048  -0.00000  -0.00004   0.00017   0.00009
  57 8   H  1S          0.00089  -0.00000  -0.00006   0.00029  -0.00007
  58        2S         -0.01048  -0.00001  -0.00021   0.00089  -0.00000
  59 9   H  1S         -0.00016   0.00000   0.00011  -0.00047   0.00133
  60        2S          0.00073   0.00000  -0.00045   0.00198  -0.00535
  61 10  C  1S         -0.00002   0.00000  -0.00000   0.00001  -0.00000
  62        2S         -0.00002   0.00000  -0.00000   0.00004  -0.00001
  63        2PX         0.00001   0.00000   0.00002  -0.00006  -0.00002
  64        2PY        -0.00010   0.00000  -0.00001   0.00007  -0.00001
  65        2PZ        -0.00001  -0.00003  -0.00003  -0.00001   0.00001
  66        3S          0.00091  -0.00000   0.00026  -0.00123  -0.00001
  67        3PX         0.00158  -0.00001  -0.00006   0.00013  -0.00007
  68        3PY        -0.00009  -0.00002  -0.00015   0.00059  -0.00000
  69        3PZ         0.00005   0.00030   0.00031   0.00009  -0.00009
  70 11  H  1S         -0.00017  -0.00002  -0.00001   0.00001   0.00001
  71        2S          0.00005  -0.00014  -0.00016  -0.00008   0.00002
  72 12  H  1S         -0.00021   0.00002   0.00000   0.00001  -0.00002
  73        2S          0.00012   0.00015   0.00020   0.00000   0.00001
  74 13  H  1S          0.00008   0.00000  -0.00001   0.00006   0.00001
  75        2S          0.00052  -0.00000  -0.00006   0.00023  -0.00007
  76 14  C  1S          0.00001  -0.00000  -0.00000   0.00000  -0.00001
  77        2S          0.00003   0.00000   0.00001  -0.00005   0.00002
  78        2PX        -0.00006   0.00000   0.00002  -0.00007   0.00008
  79        2PY        -0.00001   0.00000   0.00002  -0.00008   0.00005
  80        2PZ         0.00000   0.00000   0.00002   0.00001   0.00003
  81        3S         -0.00047   0.00000   0.00012  -0.00053   0.00084
  82        3PX        -0.00042   0.00000   0.00015  -0.00067   0.00054
  83        3PY         0.00003  -0.00000  -0.00003   0.00016   0.00051
  84        3PZ        -0.00000   0.00000  -0.00025  -0.00006  -0.00041
  85 15  H  1S          0.00001   0.00000   0.00005  -0.00000   0.00005
  86        2S         -0.00006  -0.00001   0.00005  -0.00008   0.00012
  87 16  H  1S          0.00001  -0.00000  -0.00004  -0.00002  -0.00008
  88        2S         -0.00006   0.00001  -0.00001  -0.00010   0.00000
  89 17  H  1S          0.00004   0.00000  -0.00002   0.00009  -0.00019
  90        2S          0.00017  -0.00000  -0.00005   0.00024   0.00039
  91 18  B  1S         -0.00034   0.00000   0.00020  -0.00092  -0.00057
  92        2S         -0.00056   0.00000  -0.00022   0.00100  -0.00135
  93        2PX        -0.00064   0.00000  -0.00001   0.00006  -0.00063
  94        2PY        -0.00057   0.00000  -0.00000   0.00002   0.00001
  95        2PZ        -0.00000  -0.00110   0.00100   0.00022  -0.00028
  96        3S         -0.00042   0.00000  -0.00147   0.00664   0.00293
  97        3PX         0.00606  -0.00001  -0.00085   0.00379   0.00451
  98        3PY         0.00032  -0.00001   0.00023  -0.00106   0.00093
  99        3PZ         0.00000   0.00781  -0.00936  -0.00208   0.00134
 100 19  Cl 1S         -0.00001   0.00004   0.00165   0.00250  -0.00005
 101        2S          0.00007  -0.00020  -0.00580  -0.00865   0.00017
 102        2PX        -0.00425   0.00208  -0.13715  -0.22551   0.15750
 103        2PY        -0.00327   0.01014   0.25548   0.41418   0.02957
 104        2PZ        -0.00056   0.00233   0.43432   0.67232   0.03244
 105        3S         -0.00043   0.00057   0.00521   0.00404   0.00025
 106        3PX        -0.00059   0.00040  -0.01180  -0.01937   0.01309
 107        3PY        -0.00059   0.00162   0.02179   0.03524   0.00240
 108        3PZ        -0.00011   0.00037   0.03773   0.05686   0.00279
 109        4S          0.00012   0.00190  -0.01039  -0.00757  -0.00080
 110        4PX        -0.00014  -0.00134   0.00523   0.00715  -0.00508
 111        4PY         0.00065  -0.00088  -0.00915  -0.01339  -0.00103
 112        4PZ        -0.00020   0.00054  -0.01654  -0.02036  -0.00174
 113 20  Cl 1S         -0.00056   0.00000   0.00001  -0.00004  -0.00003
 114        2S          0.00199  -0.00000  -0.00005   0.00022   0.00019
 115        2PX         0.90476  -0.00139   0.00046  -0.00206   0.00421
 116        2PY        -0.36053   0.00019   0.00200  -0.00888  -0.00611
 117        2PZ         0.00136   0.97411  -0.00907  -0.00198   0.00721
 118        3S         -0.00179  -0.00000   0.00047  -0.00212  -0.00126
 119        3PX         0.07514  -0.00011  -0.00001   0.00003   0.00015
 120        3PY        -0.02957   0.00002  -0.00005   0.00024   0.00022
 121        3PZ         0.00011   0.07950  -0.00014  -0.00003   0.00001
 122        4S          0.00159   0.00000  -0.00048   0.00216   0.00032
 123        4PX        -0.02642   0.00004   0.00011  -0.00052   0.00016
 124        4PY         0.01024  -0.00001   0.00036  -0.00164  -0.00052
 125        4PZ        -0.00004  -0.02592  -0.00044  -0.00010   0.00105
 126 21  Cl 1S         -0.00001  -0.00004  -0.00256   0.00156  -0.00028
 127        2S          0.00007   0.00020   0.00892  -0.00538   0.00100
 128        2PX        -0.00429  -0.00208   0.21972  -0.14622   0.71674
 129        2PY        -0.00333  -0.01021  -0.40738   0.26726   0.62308
 130        2PZ         0.00057   0.00235   0.67822  -0.42439   0.14199
 131        3S         -0.00043  -0.00056  -0.00643   0.00145  -0.00031
 132        3PX        -0.00059  -0.00039   0.01889  -0.01255   0.05884
 133        3PY        -0.00060  -0.00162  -0.03471   0.02272   0.05098
 134        3PZ         0.00011   0.00037   0.05827  -0.03547   0.01184
 135        4S          0.00012  -0.00190   0.01262  -0.00246  -0.00097
 136        4PX        -0.00014   0.00134  -0.00776   0.00427  -0.01910
 137        4PY         0.00066   0.00088   0.01398  -0.00826  -0.01675
 138        4PZ         0.00020   0.00054  -0.02360   0.01142  -0.00328
                          21        22        23        24        25
                           O         O         O         O         O
     Eigenvalues --    -7.91700  -7.91695  -7.91678  -7.71405  -1.37750
   1 1   C  1S         -0.00002  -0.00000   0.00002  -0.00013  -0.09515
   2        2S         -0.00013   0.00001   0.00028  -0.00181   0.11068
   3        2PX        -0.00003   0.00007   0.00050  -0.00196   0.02326
   4        2PY         0.00004   0.00001   0.00003   0.00083  -0.08724
   5        2PZ        -0.00004   0.00002  -0.00000  -0.00000   0.00011
   6        3S          0.00036   0.00034   0.00160  -0.00404   0.07070
   7        3PX         0.00108  -0.00057  -0.00515   0.01706   0.02152
   8        3PY        -0.00043  -0.00021  -0.00069  -0.00115   0.08186
   9        3PZ         0.00007  -0.00051   0.00007   0.00002  -0.00010
  10 2   C  1S         -0.00000   0.00001   0.00005  -0.00016  -0.04110
  11        2S         -0.00000   0.00004   0.00029  -0.00088   0.03960
  12        2PX        -0.00002   0.00000   0.00004   0.00018   0.02934
  13        2PY        -0.00001  -0.00001  -0.00005  -0.00043  -0.01766
  14        2PZ         0.00006   0.00002   0.00000   0.00000   0.00003
  15        3S          0.00014  -0.00059  -0.00390   0.01417   0.13540
  16        3PX         0.00074  -0.00036  -0.00328   0.00819   0.03857
  17        3PY         0.00036   0.00023   0.00100   0.00120  -0.09611
  18        3PZ        -0.00032   0.00003  -0.00002  -0.00003   0.00011
  19 3   C  1S          0.00001  -0.00000  -0.00002  -0.00005  -0.02826
  20        2S          0.00001  -0.00001  -0.00009  -0.00039   0.03862
  21        2PX        -0.00005  -0.00002  -0.00005   0.00017   0.02484
  22        2PY        -0.00000   0.00002   0.00010   0.00001   0.00106
  23        2PZ        -0.00002  -0.00001  -0.00000  -0.00000   0.00005
  24        3S         -0.00093  -0.00011   0.00083   0.00404  -0.06614
  25        3PX        -0.00009   0.00018   0.00128  -0.00280  -0.05928
  26        3PY         0.00115   0.00014  -0.00079  -0.00156  -0.00136
  27        3PZ         0.00048   0.00027  -0.00001   0.00001  -0.00012
  28 4   C  1S          0.00002   0.00001   0.00001  -0.00021  -0.04065
  29        2S          0.00010   0.00003   0.00007  -0.00119   0.03897
  30        2PX        -0.00004   0.00000   0.00006   0.00012   0.02847
  31        2PY        -0.00013  -0.00003  -0.00001   0.00051   0.01901
  32        2PZ         0.00023   0.00017  -0.00001  -0.00000  -0.00002
  33        3S         -0.00216  -0.00047   0.00016   0.01855   0.13514
  34        3PX        -0.00198  -0.00032   0.00094   0.01352   0.03268
  35        3PY         0.00208   0.00046  -0.00022  -0.00254   0.09684
  36        3PZ        -0.00141  -0.00104   0.00007   0.00001  -0.00011
  37 5   C  1S          0.00001  -0.00001  -0.00005  -0.00013  -0.09162
  38        2S          0.00028  -0.00006  -0.00076  -0.00143   0.10769
  39        2PX         0.00050   0.00004  -0.00050  -0.00195   0.01645
  40        2PY         0.00022   0.00006   0.00007  -0.00090   0.08409
  41        2PZ        -0.00067  -0.00063   0.00005   0.00000  -0.00008
  42        3S          0.00166   0.00063   0.00149  -0.00719   0.06136
  43        3PX        -0.00330  -0.00031   0.00285   0.02371   0.02443
  44        3PY        -0.00352  -0.00104  -0.00126   0.00493  -0.07545
  45        3PZ         0.00221   0.00168  -0.00011  -0.00000   0.00009
  46 6   N  1S         -0.00004  -0.00001   0.00000  -0.00001  -0.19173
  47        2S         -0.00016  -0.00005  -0.00011   0.00046   0.16217
  48        2PX         0.00009   0.00001  -0.00005   0.00122  -0.06501
  49        2PY         0.00004   0.00004   0.00023  -0.00011   0.00086
  50        2PZ        -0.00016  -0.00036   0.00004   0.00000  -0.00003
  51        3S          0.00263   0.00043  -0.00121   0.00004   0.65889
  52        3PX        -0.00046  -0.00015  -0.00024  -0.00370  -0.10012
  53        3PY        -0.00146  -0.00042  -0.00050   0.00096  -0.00211
  54        3PZ         0.00053   0.00065  -0.00007  -0.00001  -0.00003
  55 7   H  1S          0.00004   0.00003   0.00011  -0.00055   0.00580
  56        2S          0.00004   0.00007   0.00039  -0.00114  -0.01830
  57 8   H  1S         -0.00007   0.00005   0.00045  -0.00156   0.02464
  58        2S         -0.00005   0.00009   0.00063  -0.00159  -0.04309
  59 9   H  1S          0.00099   0.00023  -0.00001  -0.00177   0.02353
  60        2S         -0.00377  -0.00130  -0.00254   0.00077  -0.03551
  61 10  C  1S         -0.00000   0.00000   0.00002   0.00000  -0.00652
  62        2S         -0.00001   0.00001   0.00011  -0.00015   0.00589
  63        2PX        -0.00002  -0.00000   0.00003  -0.00031   0.00623
  64        2PY        -0.00001  -0.00000   0.00002   0.00014  -0.00724
  65        2PZ        -0.00001   0.00000   0.00000  -0.00002   0.00001
  66        3S          0.00004  -0.00013  -0.00089  -0.00064   0.04976
  67        3PX        -0.00003   0.00000  -0.00001  -0.00024   0.00361
  68        3PY        -0.00003   0.00008   0.00052  -0.00030  -0.01387
  69        3PZ         0.00012  -0.00003  -0.00000   0.00014  -0.00042
  70 11  H  1S         -0.00003  -0.00001   0.00003  -0.00000   0.00188
  71        2S         -0.00002   0.00004  -0.00003   0.00007  -0.00162
  72 12  H  1S          0.00001   0.00001   0.00003  -0.00000   0.00199
  73        2S          0.00003  -0.00006  -0.00006   0.00028  -0.00184
  74 13  H  1S          0.00000   0.00001   0.00006  -0.00007   0.00088
  75        2S         -0.00003   0.00001   0.00002   0.00050  -0.00518
  76 14  C  1S         -0.00001  -0.00000  -0.00000   0.00002  -0.00643
  77        2S          0.00002   0.00001   0.00001  -0.00008   0.00551
  78        2PX         0.00006   0.00001  -0.00000  -0.00018   0.00562
  79        2PY         0.00004   0.00001  -0.00001  -0.00026   0.00736
  80        2PZ        -0.00003  -0.00002   0.00000   0.00000  -0.00001
  81        3S          0.00061   0.00014  -0.00005  -0.00100   0.04960
  82        3PX         0.00041   0.00008  -0.00012  -0.00200   0.00576
  83        3PY         0.00035   0.00013   0.00029   0.00118   0.01210
  84        3PZ         0.00048   0.00034  -0.00002  -0.00001   0.00007
  85 15  H  1S         -0.00008  -0.00006   0.00000  -0.00003   0.00110
  86        2S         -0.00003  -0.00003  -0.00001  -0.00025  -0.00295
  87 16  H  1S          0.00007   0.00006  -0.00000  -0.00003   0.00111
  88        2S          0.00012   0.00005  -0.00002  -0.00025  -0.00291
  89 17  H  1S         -0.00013  -0.00004  -0.00005   0.00016   0.00234
  90        2S          0.00026   0.00012   0.00039   0.00150  -0.00354
  91 18  B  1S         -0.00042  -0.00011  -0.00010   0.99034  -0.02695
  92        2S         -0.00098  -0.00027  -0.00026   0.10395   0.04306
  93        2PX        -0.00052   0.00002   0.00088  -0.00319  -0.03939
  94        2PY         0.00009  -0.00020  -0.00135  -0.00103   0.00110
  95        2PZ         0.00057  -0.00079   0.00015  -0.00000  -0.00001
  96        3S          0.00214   0.00055   0.00027  -0.09094   0.00248
  97        3PX         0.00368  -0.00002  -0.00555   0.00051   0.02045
  98        3PY         0.00017   0.00146   0.00890   0.01142  -0.00740
  99        3PZ        -0.00315   0.00569  -0.00102   0.00002   0.00000
 100 19  Cl 1S         -0.00025  -0.00018   0.00008  -0.00013   0.00233
 101        2S          0.00089   0.00057  -0.00032   0.00057  -0.01350
 102        2PX         0.59434   0.56903  -0.42107  -0.00006   0.00252
 103        2PY         0.67328  -0.12069   0.49283   0.00106  -0.00169
 104        2PZ        -0.20931   0.25146  -0.44617   0.00114  -0.00293
 105        3S         -0.00043   0.00008   0.00028  -0.00640   0.01581
 106        3PX         0.04874   0.04668  -0.03428  -0.00023  -0.00459
 107        3PY         0.05514  -0.01008   0.04011  -0.00044   0.00370
 108        3PZ        -0.01751   0.02098  -0.03595  -0.00028   0.00601
 109        4S         -0.00133   0.00201   0.00171   0.02617   0.01158
 110        4PX        -0.01549  -0.01548   0.01072  -0.00323  -0.00791
 111        4PY        -0.01835   0.00447  -0.01246   0.00581   0.00026
 112        4PZ         0.00528  -0.00667   0.01195   0.01126   0.00078
 113 20  Cl 1S         -0.00002  -0.00001  -0.00001  -0.00006   0.00228
 114        2S          0.00013   0.00005   0.00009   0.00026  -0.01326
 115        2PX         0.00319   0.00046  -0.00178   0.00001   0.00253
 116        2PY        -0.00433  -0.00145  -0.00269  -0.00117   0.00288
 117        2PZ        -0.00997   0.00119  -0.00076  -0.00000   0.00000
 118        3S         -0.00091  -0.00027  -0.00033  -0.00251   0.01090
 119        3PX         0.00011   0.00001  -0.00008  -0.00061  -0.00324
 120        3PY         0.00015   0.00007   0.00019   0.00003  -0.00590
 121        3PZ        -0.00002   0.00008  -0.00001  -0.00000  -0.00000
 122        4S          0.00037  -0.00028  -0.00230   0.01330   0.02371
 123        4PX         0.00001   0.00028   0.00176  -0.00064  -0.01558
 124        4PY        -0.00039  -0.00005   0.00024  -0.00649  -0.00288
 125        4PZ        -0.00123  -0.00083   0.00005  -0.00000  -0.00001
 126 21  Cl 1S         -0.00001   0.00014   0.00005  -0.00013   0.00233
 127        2S          0.00001  -0.00044  -0.00022   0.00057  -0.01350
 128        2PX         0.09597  -0.52018  -0.29264  -0.00006   0.00252
 129        2PY        -0.24164   0.35958   0.36761   0.00106  -0.00169
 130        2PZ        -0.17561   0.38395   0.33061  -0.00114   0.00293
 131        3S          0.00035  -0.00000   0.00034  -0.00639   0.01581
 132        3PX         0.00801  -0.04256  -0.02375  -0.00023  -0.00459
 133        3PY        -0.01981   0.02955   0.02981  -0.00044   0.00371
 134        3PZ        -0.01461   0.03166   0.02636   0.00027  -0.00600
 135        4S         -0.00021  -0.00173   0.00232   0.02614   0.01160
 136        4PX        -0.00349   0.01386   0.00717  -0.00321  -0.00793
 137        4PY         0.00646  -0.01066  -0.00876   0.00581   0.00025
 138        4PZ         0.00540  -0.00999  -0.00889  -0.01125  -0.00080
                          26        27        28        29        30
                           O         O         O         O         O
     Eigenvalues --    -1.18646  -1.14127  -1.10679  -1.05918  -1.04858
   1 1   C  1S         -0.01457   0.10552   0.01419  -0.02267   0.00004
   2        2S          0.02086  -0.11824  -0.01489   0.02305  -0.00005
   3        2PX        -0.09112   0.04184  -0.01092   0.03237  -0.00003
   4        2PY         0.02838   0.00331   0.02848  -0.00971   0.00001
   5        2PZ        -0.00003  -0.00004  -0.00003  -0.00000  -0.00288
   6        3S          0.02640  -0.21225  -0.01611   0.06398  -0.00010
   7        3PX        -0.00410   0.03203  -0.00974   0.00080  -0.00001
   8        3PY        -0.02308  -0.00971   0.00380   0.00964  -0.00003
   9        3PZ        -0.00003   0.00012  -0.00003   0.00002  -0.00410
  10 2   C  1S         -0.11382   0.10929  -0.01984   0.02300  -0.00002
  11        2S          0.12580  -0.11703   0.02291  -0.02382   0.00003
  12        2PX        -0.01240  -0.03906  -0.01906   0.01966  -0.00004
  13        2PY        -0.05230  -0.01804  -0.00358  -0.01002   0.00000
  14        2PZ         0.00011  -0.00013   0.00003  -0.00005  -0.00075
  15        3S          0.22117  -0.23902   0.02509  -0.06053   0.00004
  16        3PX         0.00659   0.00789  -0.01155  -0.00492  -0.00003
  17        3PY         0.01955   0.02539   0.00830  -0.00299   0.00001
  18        3PZ         0.00007  -0.00014   0.00003  -0.00004   0.00090
  19 3   C  1S         -0.13385  -0.00047  -0.02867   0.00312  -0.00002
  20        2S          0.14839   0.00047   0.03139  -0.00349   0.00003
  21        2PX         0.05749   0.00268   0.00269   0.00085  -0.00000
  22        2PY         0.00412  -0.09441   0.00266  -0.02718   0.00002
  23        2PZ         0.00017   0.00004   0.00003  -0.00000  -0.00027
  24        3S          0.30041   0.00201   0.07092  -0.00867   0.00005
[...]
 20,-0.00418287,0.00049420,0.00028771,0.00105970,0.00205178,-0.00012642
 ,-0.00175733,0.00171211,-0.00007151,0.00007696,0.00001427,-0.00002216,
 0.06657170,0.55873918,0.00064921,-0.00098510,0.00514632,0.00041338,0.0
 0038093,-0.08939943,-0.00061499,0.00105141,0.00605651,0.00033159,0.000
 31640,0.00709993,0.00004656,-0.00001623,-0.00080687,0.00048979,0.00016
 233,0.01048958,-0.00015427,-0.00008944,-0.00370380,-0.00015441,-0.0001
 4086,-0.00546119,-0.00003866,-0.00002041,-0.00116695,-0.00096150,-0.00
 086576,0.62061131,-0.00070421,0.00260045,0.00056352,-0.01355699,0.0039
 2807,0.01501198,0.00058744,-0.00264509,-0.00038579,-0.00092206,0.00065
 923,-0.00089026,0.00064861,0.00018982,0.00012975,-0.00106106,-0.000134
 69,-0.00128764,0.00035070,0.00008460,0.00067830,0.00025024,0.00010858,
 0.00076095,0.00003548,0.00002870,0.00018810,-0.14181949,0.00998474,0.1
 3023590,0.15434313,-0.00021533,-0.00310705,-0.00042371,0.02305193,-0.0
 0599084,-0.03062323,0.00126191,0.00072489,0.00041911,-0.00069962,0.000
 76629,0.00106815,0.00117720,0.00055672,-0.00029853,0.00083195,-0.00124
 404,0.00155224,-0.00070034,-0.00039268,-0.00054466,0.00013198,-0.00008
 281,-0.00037338,-0.00005673,0.00000487,-0.00006708,0.00834396,-0.05969
 454,-0.01496313,-0.01521625,0.06558126,-0.00007499,0.00023570,-0.00031
 515,-0.00302061,0.00021506,0.00464057,0.00014083,0.00031480,0.00068197
 ,0.00021512,-0.00047161,0.00020749,-0.00033742,-0.00009863,-0.00003604
 ,-0.00021708,0.00039211,-0.00041477,-0.00010385,-0.00044906,-0.0003065
 1,-0.00005732,0.00000695,0.00016988,-0.00002139,-0.00000874,-0.0000030
 0,0.13122827,-0.01594918,-0.25293524,-0.14533867,0.01647092,0.27432727
 ,0.00135663,0.00140614,-0.00005150,0.01402444,0.02119191,-0.00082794,-
 0.00313362,0.00336781,0.00006578,0.00089813,0.00083284,-0.00002902,-0.
 00004260,-0.00014982,0.00000541,0.00069922,-0.00022449,-0.00002443,0.0
 0008136,0.00023099,-0.00001325,-0.00033812,0.00018026,0.00002149,-0.00
 001333,-0.00001900,0.00000118,-0.17582471,-0.14416457,0.00584082,-0.01
 369819,-0.01660915,-0.00064101,0.19101896,-0.00335187,0.00126477,0.000
 07956,-0.02128144,-0.02681388,0.00102441,0.00489449,-0.00505615,-0.000
 03391,-0.00203318,-0.00042384,0.00007064,0.00056997,0.00069563,-0.0000
 2654,0.00013098,-0.00035742,-0.00000309,0.00014361,0.00018631,-0.00001
 112,0.00145668,0.00038878,-0.00003858,0.00006918,0.00005444,-0.0000025
 2,-0.13673131,-0.23046279,0.00685719,0.00233974,0.00335254,0.00069043,
 0.15186854,0.25506812,0.00002838,-0.00005501,0.00036896,-0.00010948,-0
 .00019588,-0.00230539,0.00004015,0.00000842,0.00115817,0.00001946,-0.0
 0001135,0.00035573,-0.00000742,-0.00000676,0.00006500,-0.00003004,0.00
 000824,-0.00028170,-0.00001135,-0.00001356,-0.00024146,-0.00000053,-0.
 00000273,0.00051629,-0.00000033,-0.00000013,0.00001570,0.00571575,0.00
 707117,-0.05760518,0.02088241,0.02719111,0.00010945,-0.00645818,-0.007
 73643,0.05589963,-0.00073299,0.00256691,-0.00062780,-0.01421406,0.0034
 2345,-0.01408205,0.00060364,-0.00264457,0.00047967,-0.00087961,0.00071
 465,0.00093000,0.00065665,0.00018883,-0.00017562,-0.00097524,-0.000111
 70,0.00132450,0.00031743,0.00008713,-0.00071821,0.00021052,0.00008270,
 -0.00076608,0.00002597,0.00002288,-0.00019065,-0.15718456,0.00619698,-
 0.13604721,0.01536349,-0.00127828,0.01820543,-0.01479667,0.00160248,-0
 .02006457,0.17142340,-0.00018305,-0.00310431,0.00052940,0.02488553,-0.
 00497494,0.02958310,0.00123071,0.00070356,-0.00049054,-0.00076499,0.00
 074603,-0.00104378,0.00120115,0.00056809,0.00021071,0.00075225,-0.0013
 0781,-0.00156849,-0.00066554,-0.00035914,0.00058487,0.00015502,-0.0000
 7062,0.00037387,-0.00005214,0.00000741,0.00006986,0.00446680,-0.058882
 36,0.00828374,-0.00198837,-0.00039377,-0.00134133,-0.01809850,0.002422
 02,-0.02625373,-0.01091276,0.06472756,0.00010440,-0.00028877,-0.000293
 55,0.00326576,-0.00009201,0.00428111,-0.00017763,-0.00016494,0.0006901
 0,-0.00012794,0.00041342,0.00018587,0.00025746,0.00006801,-0.00005541,
 0.00022559,-0.00035757,-0.00043674,0.00009061,0.00044705,-0.00030591,0
 .00004965,-0.00000381,0.00019820,0.00002154,0.00000704,0.00000403,-0.1
 3698613,0.00917686,-0.23839565,-0.02053550,0.00056363,-0.02612073,0.00
 211249,-0.00086253,0.00213938,0.15173235,-0.00891276,0.25811264,-0.003
 13756,0.00014407,0.00007097,-0.00221632,0.00649727,0.00012394,0.015728
 05,0.01630649,-0.00056211,-0.12797835,-0.03786572,0.00173689,-0.016634
 70,-0.03841678,0.00126667,-0.00431568,-0.00029521,0.00046976,0.0011529
 9,0.00021193,-0.00011755,0.00013674,-0.00003748,-0.00003588,0.00102184
 ,-0.00079468,-0.00018235,0.00088853,0.00067337,-0.00004063,-0.00003179
 ,-0.00000020,0.00002168,-0.00020212,0.00043780,-0.00000490,-0.00003467
 ,0.00000383,-0.00002005,0.62229953,-0.00094515,0.00054121,0.00000706,0
 .00471755,-0.00030964,-0.00001069,-0.01810247,-0.03306821,0.00117037,-
 0.04438778,-0.18475184,0.00287759,-0.00297289,-0.00130895,0.00019828,0
 .00389957,0.00050439,0.00005781,-0.00111633,0.00203361,-0.00006041,-0.
 00007627,0.00000726,-0.00001589,0.00180211,0.00168868,-0.00016026,-0.0
 0060300,-0.00052167,0.00002278,-0.00001542,-0.00001530,-0.00000854,0.0
 0016915,-0.00021053,-0.00000357,-0.00001593,-0.00001213,0.00000980,-0.
 06377705,0.55304649,0.00011213,-0.00001511,-0.00055233,0.00016357,-0.0
 0009042,0.00670194,0.00001689,0.00018961,0.00581105,0.00182258,0.00264
 657,-0.08965316,0.00067478,0.00119562,0.00519341,0.00035583,0.00018881
 ,0.01142079,-0.00011612,-0.00009018,-0.00341955,-0.00003739,-0.0000202
 3,-0.00118431,-0.00021116,-0.00009709,-0.00557350,-0.00002128,-0.00001
 418,-0.00019649,0.00003403,-0.00008781,-0.00000286,-0.00000024,-0.0000
 1199,-0.00012513,-0.00003119,0.00008694,-0.00000324,0.00111382,0.00308
 012,0.62051370,0.00071368,-0.00018341,0.00010340,-0.00092207,-0.000779
 59,-0.00077149,0.00049759,0.00258283,-0.00044859,-0.01230985,-0.003841
 41,0.01378683,-0.00053111,-0.00247724,0.00059310,-0.00098011,0.0001582
 4,-0.00131825,0.00031397,-0.00002940,0.00061333,0.00004004,-0.00001783
 ,0.00018824,0.00022638,-0.00005334,0.00077310,-0.00003151,0.00001389,0
 .00002876,0.00003505,-0.00000696,-0.00000217,-0.00000373,-0.00000463,0
 .00000682,0.00002021,0.00000149,-0.00000454,-0.13987467,-0.00981351,0.
 12934801,0.15171831,-0.00128205,0.00047430,0.00023685,0.00067697,0.000
 76183,-0.00107732,-0.00121502,0.00072807,-0.00042888,-0.02348964,-0.00
 624673,0.03187038,0.00043293,-0.00323469,0.00046786,-0.00081185,-0.001
 20942,-0.00174610,0.00072740,-0.00032769,0.00054697,0.00006353,0.00000
 917,0.00007799,-0.00014038,-0.00006917,0.00045035,0.00000108,-0.000012
 63,0.00009174,0.00000862,0.00000208,-0.00000944,-0.00000314,0.00002590
 ,0.00001853,-0.00000081,-0.00000469,-0.00000341,-0.00818883,-0.0596654
 5,0.01523319,0.01491785,0.06597275,-0.00030637,0.00006610,-0.00005748,
 0.00017043,0.00047312,0.00022603,0.00021043,-0.00030556,0.00067142,-0.
 00221534,0.00000480,0.00363284,-0.00009271,-0.00013746,-0.00031070,-0.
 00018247,-0.00039554,-0.00038417,-0.00015083,0.00044524,-0.00033407,-0
 .00002420,0.00000877,-0.00000447,-0.00004888,-0.00000115,0.00016685,0.
 00002089,0.00001106,-0.00000590,-0.00000314,0.00000972,0.00001505,-0.0
 0000742,0.00000013,0.00000115,0.00000250,-0.00000310,-0.00001602,0.130
 23807,0.01627044,-0.25487348,-0.14451265,-0.01708990,0.27647710,0.0007
 2202,-0.00018530,-0.00014163,-0.00087726,-0.00077795,0.00086512,0.0005
 1916,0.00261769,0.00037181,-0.01299201,-0.00417641,-0.01254767,-0.0005
 5840,-0.00249298,-0.00050728,-0.00090060,0.00022009,0.00132578,0.00029
 347,-0.00008138,-0.00065313,0.00003076,-0.00002534,-0.00018932,0.00019
 235,-0.00007839,-0.00076322,-0.00003360,0.00001217,-0.00002814,0.00002
 012,0.00000151,0.00000235,-0.00000359,-0.00000482,-0.00000632,0.000035
 33,-0.00000795,0.00000137,-0.15725453,-0.01498822,-0.13535747,0.015156
 80,0.00259831,0.01790972,0.17105330,-0.00127513,0.00046346,-0.00018077
 ,0.00072411,0.00078102,0.00100155,-0.00119598,0.00077624,0.00048774,-0
 .02539114,-0.00713612,-0.02994298,0.00038471,-0.00329842,-0.00039784,-
 0.00071862,-0.00112137,0.00181010,0.00070350,-0.00036494,-0.00057766,0
 .00005997,0.00000603,-0.00008004,-0.00016457,-0.00008528,-0.00043094,-
 0.00000251,-0.00001527,-0.00009038,-0.00000086,-0.00000465,0.00000294,
 -0.00000418,0.00002593,-0.00001891,0.00000911,0.00000188,0.00000941,-0
 .01328856,-0.06077334,-0.02001967,0.00215005,-0.00022362,0.00143951,0.
 02058893,0.06715743,0.00030046,-0.00008085,-0.00005724,-0.00012778,-0.
 00044212,0.00016697,-0.00016329,0.00014785,0.00064237,0.00407966,0.000
 62093,0.00518807,0.00008233,0.00037811,-0.00027795,0.00025072,0.000422
 52,-0.00054652,0.00009549,-0.00044638,-0.00026674,0.00002084,-0.000007
 09,0.00000857,0.00005078,0.00001590,0.00022623,-0.00001902,-0.00001157
 ,0.00000005,-0.00000456,0.00000257,-0.00001639,0.00000776,-0.00000031,
 0.00000159,0.00000135,-0.00000836,0.00001486,-0.13633205,-0.02100169,-
 0.23646936,-0.02068073,-0.00236720,-0.02607457,0.15088232,0.02185848,0
 .25603882,-0.00001930,0.00011623,-0.00000062,0.00085558,-0.00077757,0.
 00000649,-0.00274530,-0.00328363,0.00017192,0.01395009,-0.01928658,-0.
 00025109,0.00131481,-0.00137913,-0.00000351,0.00065972,0.00029198,-0.0
 0003718,0.00009913,-0.00022967,-0.00000876,-0.00001377,0.00001504,0.00
 000115,-0.00026905,-0.00022479,0.00002942,-0.00017294,-0.00017026,0.00
 000386,-0.00000398,0.00000174,-0.00000740,0.00005212,-0.00006184,-0.00
 000087,-0.00000408,0.00000328,0.00000763,-0.18972386,0.14655635,0.0021
 3724,-0.01424296,0.01561961,-0.00103810,-0.01557399,0.01733691,0.00159
 974,0.20592808,-0.00055745,0.00062002,0.00000504,0.00206303,-0.0003961
 2,-0.00003827,-0.00475864,-0.00536737,0.00023679,0.02325596,-0.0267831
 3,-0.00038471,0.00326665,0.00127117,-0.00010290,-0.00015390,-0.0002542
 1,0.00001148,-0.00014473,0.00016917,-0.00000538,-0.00006105,0.00005912
 ,-0.00000003,-0.00147885,0.00029158,0.00003876,-0.00042776,-0.00023611
 ,0.00001433,0.00000337,0.00002353,-0.00000172,0.00007021,-0.00013934,0
 .00000003,0.00000327,0.00002418,0.00000076,0.13905779,-0.21736951,-0.0
 0218486,-0.00253216,0.00319170,-0.00079976,-0.00313270,0.00398386,0.00
 091121,-0.15456604,0.24088382,0.00000171,-0.00000934,0.00006026,-0.000
 03996,0.00004476,0.00034686,0.00019582,0.00020422,0.00118861,-0.000879
 27,0.00101599,-0.00230242,-0.00007881,0.00002297,0.00037761,-0.0000257
 2,-0.00001431,-0.00033547,-0.00000486,-0.00000166,-0.00023646,0.000001
 92,-0.00000088,0.00001702,0.00004249,0.00000708,0.00052298,0.00000867,
 0.00000673,-0.00013063,0.00000757,-0.00001950,0.00000193,-0.00000305,0
 .00000416,-0.00000904,-0.00000772,0.00001891,0.00000123,0.00225543,-0.
 00243599,-0.05731262,0.02226199,-0.02626541,0.00085053,-0.02112479,0.0
 2512109,0.00139769,-0.00261200,0.00230284,0.05556376,-0.02088589,0.020
 42673,0.00041038,0.00557194,0.00045021,-0.00001389,-0.00025034,0.00070
 491,-0.00000845,0.00660384,-0.00146069,-0.00003978,-0.02525294,-0.0221
 1778,0.00122031,-0.11556689,0.00075236,0.00160742,0.00028410,-0.000005
 10,-0.00002801,0.00168215,-0.00078253,-0.00008088,0.00074273,0.0006278
 6,-0.00000096,0.00041923,0.00085810,-0.00003036,0.00040003,-0.00025077
 ,-0.00000764,-0.00021769,-0.00010950,0.00001217,0.00039031,-0.00025208
 ,-0.00000708,0.00040904,-0.00082634,-0.00000424,0.00038503,0.00027558,
 -0.00000564,0.00037122,0.00027600,-0.00002921,-0.00023035,0.00012271,0
 .00001309,0.23421929,0.02914973,0.00560849,-0.00082830,-0.00193151,-0.
 00676635,0.00025790,-0.00000075,0.00238877,-0.00004225,0.00119014,-0.0
 0672704,0.00015065,-0.03298705,0.00510029,0.00093010,-0.00075425,-0.06
 754641,0.00017199,-0.00004346,-0.00029894,-0.00000561,0.00508827,-0.00
 260950,-0.00012811,-0.00424216,-0.00321569,0.00019148,0.00084512,0.000
 26644,-0.00003129,0.00005283,-0.00016336,0.00006177,0.00005892,-0.0002
 8883,0.00000578,0.00004333,-0.00016636,-0.00005922,-0.00082281,0.00023
 596,0.00001589,-0.00011459,-0.00019559,-0.00006557,-0.00011729,-0.0001
 9420,0.00007824,-0.00001544,-0.00026336,0.00000848,0.00863661,0.224063
 52,0.00026285,-0.00057916,0.00562714,0.00002527,0.00019048,0.00533179,
 0.00000280,-0.00006267,-0.00014311,-0.00008857,0.00022493,0.00427993,0
 .00140362,0.00062060,0.00461748,0.00163383,0.00012786,-0.05864389,-0.0
 0002739,-0.00000667,-0.00070491,-0.00017884,0.00003868,-0.00162411,0.0
 0008066,0.00005363,0.00106091,-0.00003072,-0.00003166,-0.00015709,0.00
 016252,0.00003244,-0.00001393,0.00000942,0.00001046,0.00014503,-0.0001
 8697,-0.00001294,-0.00000118,-0.00000820,0.00001705,-0.00029336,0.0002
 5119,-0.00003881,-0.00002520,-0.00026705,0.00003047,-0.00001231,0.0000
 1631,0.00000387,0.00030039,-0.00144573,-0.00083991,0.18844889,0.000663
 07,-0.00380166,0.00143914,-0.00147956,-0.00026639,-0.00082897,-0.00004
 043,0.00081901,-0.00010140,0.00043350,0.00060301,-0.00018856,-0.002073
 53,0.00158771,0.00352353,-0.01677234,0.01433389,0.02120656,-0.00006126
 ,0.00003855,0.00003491,-0.00016934,0.00001591,0.00036778,-0.00169016,0
 .00066977,0.00042940,-0.00013321,-0.00016512,-0.00020151,-0.00004731,0
 .00002746,0.00000951,0.00003979,0.00004775,0.00000610,-0.00007853,0.00
 012679,0.00000930,0.00000129,0.00013471,0.00020075,-0.00009300,-0.0000
 6247,0.00001084,-0.00001935,-0.00001926,-0.00001800,0.00004155,-0.0000
 0114,-0.00003091,-0.02691397,0.00677001,0.01157980,0.04180736,-0.00239
 540,0.00201202,-0.00017441,0.00164687,0.00115001,0.00041730,0.00000879
 ,-0.00118174,-0.00018416,-0.00048468,0.00096529,0.00060597,0.00024557,
 -0.00262849,0.00082066,0.00885160,-0.00301987,-0.00943848,0.00001047,0
 .00006630,-0.00009419,-0.00075156,0.00016811,-0.00027164,-0.00025311,0
 .00081698,-0.00086847,-0.00003756,0.00004619,0.00002240,0.00001454,0.0
 0001568,-0.00000971,-0.00003956,0.00005734,-0.00001105,0.00004408,-0.0
 0000816,0.00001320,0.00012198,-0.00009032,0.00011257,-0.00001473,0.000
 02875,0.00002891,0.00008921,0.00002911,-0.00002123,-0.00000323,0.00009
 976,-0.00008393,0.00850692,-0.03741604,-0.02405554,-0.01562920,0.05862
 652,-0.00022108,0.00252101,-0.00145835,0.00154515,0.00036752,0.0001858
 8,0.00011009,-0.00072330,-0.00005466,-0.00017882,-0.00010544,0.0000983
 7,0.00050540,-0.00167002,-0.00163920,0.01144144,-0.00960507,-0.0070043
 3,0.00006930,0.00000041,-0.00005204,-0.00040695,0.00008778,-0.00037008
 ,0.00061702,-0.00022999,-0.00114044,0.00009298,0.00013615,0.00020200,-
 0.00000608,-0.00000941,0.00000072,-0.00005395,0.00000426,-0.00006416,0
 .00014901,-0.00010473,-0.00000109,0.00002730,-0.00013231,0.00004871,-0
 .00001533,0.00005645,0.00002638,0.00017553,0.00005080,-0.00000293,-0.0
 0003923,0.00003421,-0.00012877,0.01436041,-0.02434416,-0.06259241,-0.0
 3043282,0.04933682,0.11042042,-0.00809831,-0.00174739,0.00027803,-0.00
 043793,-0.00245138,0.00006318,-0.00046951,0.00044192,0.00000003,-0.000
 01789,-0.00095159,0.00001683,-0.00282318,0.00260317,0.00004761,-0.0147
 0116,-0.01952739,0.00083530,-0.00014747,-0.00015062,0.00000566,-0.0089
 6636,-0.00352664,0.00029096,0.00009435,0.00002683,-0.00001263,0.000086
 95,-0.00023588,0.00000592,-0.00010177,0.00007170,0.00001515,0.00006154
 ,-0.00002958,-0.00000346,-0.00009911,0.00007090,-0.00001159,-0.0002214
 9,0.00022484,0.00000036,-0.00009047,-0.00010596,0.00000453,-0.00008907
 ,-0.00010726,0.00000491,0.00005354,-0.00002557,-0.00000230,-0.03364244
 ,-0.01850371,0.00060828,0.00325388,0.00021198,0.00042070,0.06296811,0.
 00077286,-0.00421720,0.00006075,0.00125777,0.00188933,-0.00006171,0.00
 030266,-0.00164890,0.00001529,-0.00207000,0.00073562,0.00004728,0.0010
 0887,0.00304282,-0.00007306,-0.00964566,-0.01176884,0.00052464,-0.0000
 1410,0.00012148,-0.00000225,-0.00020566,0.00136226,-0.00003000,0.00063
 141,0.00049707,-0.00003162,-0.00028418,-0.00018980,0.00001406,-0.00004
 089,0.00006651,-0.00002743,-0.00002707,0.00015357,-0.00000322,-0.00003
 713,0.00006729,0.00002754,-0.00008063,0.00012822,-0.00000271,-0.000041
 28,-0.00003260,0.00002541,-0.00004322,-0.00003417,-0.00002093,0.000054
 40,0.00009079,-0.00000332,-0.02515624,-0.07595605,0.00159113,-0.004816
 31,-0.02401483,-0.01198557,0.04244399,0.13268552,0.00023624,0.00013164
 ,0.00069403,0.00000104,0.00004348,0.00034111,0.00000220,0.00001161,-0.
 00021160,0.00003596,0.00001503,0.00001687,0.00007454,-0.00011805,0.000
 40934,0.00067309,0.00080666,0.00329382,0.00000344,0.00000166,-0.000034
 94,0.00023527,0.00006402,-0.00077813,-0.00002251,-0.00001443,-0.000325
 14,0.00000687,0.00001255,0.00015945,-0.00005791,0.00000288,0.00000533,
 -0.00000350,-0.00000306,-0.00007745,0.00006505,-0.00000901,0.00000186,
 0.00000500,-0.00001018,-0.00009092,-0.00002312,0.00002719,0.00001063,0
 .00003011,-0.00001990,0.00001040,-0.00000368,-0.00000124,-0.00003991,0
 .00071826,0.00140220,-0.02305859,-0.00314129,-0.01862695,-0.00394252,-
 0.00167560,-0.00292941,0.02873065,0.00059087,-0.00398942,-0.00142277,-
 0.00151570,-0.00025733,0.00093485,-0.00004199,0.00086226,0.00007187,0.
 00045211,0.00061343,0.00014635,-0.00230553,0.00156091,-0.00354019,-0.0
 1861149,0.01415211,-0.02103266,-0.00006722,0.00003724,-0.00003538,-0.0
 0016697,-0.00000218,-0.00037971,-0.00175153,0.00066650,-0.00041971,-0.
 00012581,-0.00016532,0.00022589,-0.00008744,0.00013230,-0.00000879,0.0
 0004218,0.00004696,-0.00001378,-0.00004744,0.00002763,-0.00000769,-0.0
 0001226,0.00013609,-0.00020091,-0.00002757,-0.00002173,0.00002035,-0.0
 0009212,-0.00006522,-0.00000173,0.00004496,-0.00000303,0.00002067,-0.0
 2851841,0.00769805,-0.01380308,0.00333158,-0.00014300,0.00183993,0.003
 38780,-0.00400958,0.00284054,0.04552197,-0.00237776,0.00193735,0.00019
 795,0.00157010,0.00112163,-0.00053958,0.00001633,-0.00115211,0.0002201
 1,-0.00051439,0.00094830,-0.00060584,0.00018246,-0.00260206,-0.0007969
 1,0.00899581,-0.00241759,0.00880915,0.00001333,0.00006933,0.00008949,-
 0.00072184,0.00017441,0.00029531,-0.00022589,0.00085157,0.00081633,-0.
 00004131,0.00004132,-0.00001472,0.00003828,-0.00000531,-0.00001531,-0.
 00003728,0.00005743,0.00000905,0.00001538,0.00001625,0.00000830,0.0001
 1340,-0.00008895,-0.00011507,0.00008573,0.00002772,0.00001484,-0.00001
 596,0.00002641,-0.00002807,0.00000261,0.00010045,0.00007709,0.00932305
 ,-0.03585576,0.02268577,-0.00041302,0.00427740,-0.00368542,0.00126763,
 -0.02297810,0.01921330,-0.01727668,0.05545031,0.00018510,-0.00241089,-
 0.00131148,-0.00150044,-0.00038274,0.00025042,-0.00011210,0.00071164,-
 0.00008396,0.00017589,0.00004281,0.00009541,-0.00047740,0.00161569,-0.
 00143828,-0.01109039,0.00867226,-0.00576474,-0.00006886,-0.00000650,-0
 .00004901,0.00041977,-0.00010648,-0.00037811,-0.00057724,0.00012679,-0
 .00111690,-0.00007278,-0.00012141,0.00019924,-0.00014549,0.00009766,0.
 00000495,0.00004915,-0.00001116,-0.00006654,0.00000819,0.00000735,0.00
 000023,-0.00002580,0.00012822,0.00006072,-0.00017790,-0.00005102,0.000
 00808,0.00002188,-0.00005301,0.00002839,0.00002868,-0.00004047,-0.0001
 3354,-0.01664017,0.02306996,-0.06254148,-0.00387418,0.00248193,-0.0325
 3149,-0.00089188,0.01286515,-0.00511427,0.03476595,-0.04663577,0.10988
 236\\-0.00000236,0.00000413,-0.00000846,0.00001077,0.00000517,0.000002
 50,-0.00000163,-0.00000375,-0.00000314,-0.00000221,0.00000176,-0.00000
 123,0.00000817,0.00000315,0.00000451,0.00000117,-0.00000955,0.00000327
 ,-0.00000019,0.00000060,-0.00000059,0.00000105,0.00000166,0.00000189,0
 .00000273,-0.00000223,-0.00000101,0.00000040,-0.00000141,-0.00000073,-
 0.00000289,-0.00000005,0.00000563,0.00000146,0.00000149,-0.00000021,-0
 .00000191,0.00000007,-0.00000333,0.00000161,-0.00000067,-0.00000005,0.
 00000088,-0.00000020,0.00000142,-0.00000067,0.00000062,0.00000081,-0.0
 0000035,-0.00000081,-0.00000155,-0.00000098,-0.00000716,-0.00000174,-0
 .00000634,0.00000081,0.00000282,-0.00000308,0.00000639,0.00000040,-0.0
 0000563,0.,-0.00000118\\\@


 Cherishing children is the mark of a civilized society.
 -- Joan Ganz Cooney
 Job cpu time:       0 days  0 hours  0 minutes 20.4 seconds.
 Elapsed time:       0 days  0 hours  0 minutes 20.4 seconds.
 File lengths (MBytes):  RWF=     68 Int=      0 D2E=      0 Chk=      3 Scr=      1
 Normal termination of Gaussian 16 at Mon Jun 16 23:26:16 2025.
