 Entering Gaussian System, Link 0=g16
 Input=/home/gaussian/Documents/jeeva/Aromaticity/cycloheptatrienyl_cation/cation.com
 Output=/home/gaussian/Documents/jeeva/Aromaticity/cycloheptatrienyl_cation/cation.log
 Initial command:
 /usr/local/g16/l1.exe "/home/gaussian/tmp/Gau-96950.inp" -scrdir="/home/gaussian/tmp/"
 Entering Link 1 = /usr/local/g16/l1.exe PID=     96953.
  
 Copyright (c) 1988-2017, Gaussian, Inc.  All Rights Reserved.
  
 This is part of the Gaussian(R) 16 program.  It is based on
 the Gaussian(R) 09 system (copyright 2009, Gaussian, Inc.),
 the Gaussian(R) 03 system (copyright 2003, Gaussian, Inc.),
 the Gaussian(R) 98 system (copyright 1998, Gaussian, Inc.),
 the Gaussian(R) 94 system (copyright 1995, Gaussian, Inc.),
 the Gaussian 92(TM) system (copyright 1992, Gaussian, Inc.),
 the Gaussian 90(TM) system (copyright 1990, Gaussian, Inc.),
 the Gaussian 88(TM) system (copyright 1988, Gaussian, Inc.),
 the Gaussian 86(TM) system (copyright 1986, Carnegie Mellon
 University), and the Gaussian 82(TM) system (copyright 1983,
 Carnegie Mellon University). Gaussian is a federally registered
 trademark of Gaussian, Inc.
  
 This software contains proprietary and confidential information,
 including trade secrets, belonging to Gaussian, Inc.
  
 This software is provided under written license and may be
 used, copied, transmitted, or stored only in accord with that
 written license.
  
 The following legend is applicable only to US Government
 contracts under FAR:
  
                    RESTRICTED RIGHTS LEGEND
  
 Use, reproduction and disclosure by the US Government is
 subject to restrictions as set forth in subparagraphs (a)
 and (c) of the Commercial Computer Software - Restricted
 Rights clause in FAR 52.227-19.
  
 Gaussian, Inc.
 340 Quinnipiac St., Bldg. 40, Wallingford CT 06492
  
  
 ---------------------------------------------------------------
 Warning -- This program may not be used in any manner that
 competes with the business of Gaussian, Inc. or will provide
 assistance to any competitor of Gaussian, Inc.  The licensee
 of this program is prohibited from giving any competitor of
 Gaussian, Inc. access to this program.  By using this program,
 the user acknowledges that Gaussian, Inc. is engaged in the
 business of creating and licensing software in the field of
 computational chemistry and represents and warrants to the
 licensee that it is not a competitor of Gaussian, Inc. and that
 it will not use this program in any manner prohibited above.
 ---------------------------------------------------------------
  

 Cite this work as:
 Gaussian 16, Revision B.01,
 M. J. Frisch, G. W. Trucks, H. B. Schlegel, G. E. Scuseria, 
 M. A. Robb, J. R. Cheeseman, G. Scalmani, V. Barone, 
 G. A. Petersson, H. Nakatsuji, X. Li, M. Caricato, A. V. Marenich, 
 J. Bloino, B. G. Janesko, R. Gomperts, B. Mennucci, H. P. Hratchian, 
 J. V. Ortiz, A. F. Izmaylov, J. L. Sonnenberg, D. Williams-Young, 
 F. Ding, F. Lipparini, F. Egidi, J. Goings, B. Peng, A. Petrone, 
 T. Henderson, D. Ranasinghe, V. G. Zakrzewski, J. Gao, N. Rega, 
 G. Zheng, W. Liang, M. Hada, M. Ehara, K. Toyota, R. Fukuda, 
 J. Hasegawa, M. Ishida, T. Nakajima, Y. Honda, O. Kitao, H. Nakai, 
 T. Vreven, K. Throssell, J. A. Montgomery, Jr., J. E. Peralta, 
 F. Ogliaro, M. J. Bearpark, J. J. Heyd, E. N. Brothers, K. N. Kudin, 
 V. N. Staroverov, T. A. Keith, R. Kobayashi, J. Normand, 
 K. Raghavachari, A. P. Rendell, J. C. Burant, S. S. Iyengar, 
 J. Tomasi, M. Cossi, J. M. Millam, M. Klene, C. Adamo, R. Cammi, 
 J. W. Ochterski, R. L. Martin, K. Morokuma, O. Farkas, 
 J. B. Foresman, and D. J. Fox, Gaussian, Inc., Wallingford CT, 2016.
 
 ******************************************
 Gaussian 16:  EM64L-G16RevB.01 20-Dec-2017
                 9-Jun-2025 
 ******************************************
 %chk=cation.chk
 -------------------------------------
 # opt freq hf/3-21g geom=connectivity
 -------------------------------------
 1/18=20,19=15,38=1,57=2/1,3;
 2/9=110,12=2,17=6,18=5,40=1/2;
 3/5=5,11=9,25=1,30=1,71=1/1,2,3;
 4//1;
 5/5=2,38=5/2;
 6/7=2,8=2,9=2,10=2,28=1/1;
 7//1,2,3,16;
 1/18=20,19=15/3(2);
 2/9=110/2;
 99//99;
 2/9=110/2;
 3/5=5,11=9,25=1,30=1,71=1/1,2,3;
 4/5=5,16=3,69=1/1;
 5/5=2,38=5/2;
 7//1,2,3,16;
 1/18=20,19=15/3(-5);
 2/9=110/2;
 6/7=2,8=2,9=2,10=2,19=2,28=1/1;
 99/9=1/99;
 ------------
 Optimisation
 ------------
 Symbolic Z-matrix:
 Charge =  1 Multiplicity = 1
 C                    -1.01596   1.12548  -0.23002 
 C                     0.39482   1.12583  -0.16487 
 C                     1.30307   2.2138    0.07779 
 C                    -1.94324   2.213    -0.07214 
 C                     0.92763   3.38376   0.61315 
 C                    -1.61932   3.38313   0.49554 
 C                    -0.38152   3.36968   1.32701 
 H                    -1.45987   0.17826  -0.45501 
 H                     0.85805   0.17884  -0.34799 
 H                     2.33216   2.08319  -0.18453 
 H                     1.52986   4.26526   0.5412 
 H                    -2.21282   4.26432   0.36841 
 H                    -0.43079   3.31258   2.39435 
 C                    -3.3832    2.02425  -0.58447 
 H                    -3.38011   1.35354  -1.41815 
 H                    -3.98974   1.61805   0.19784 
 H                    -3.78025   2.97002  -0.88905 
 

 GradGradGradGradGradGradGradGradGradGradGradGradGradGradGradGradGradGrad
 Berny optimization.
 Initialization pass.
                           ----------------------------
                           !    Initial Parameters    !
                           ! (Angstroms and Degrees)  !
 --------------------------                            --------------------------
 ! Name  Definition              Value          Derivative Info.                !
 --------------------------------------------------------------------------------
 ! R1    R(1,2)                  1.4123         estimate D2E/DX2                !
 ! R2    R(1,4)                  1.4379         estimate D2E/DX2                !
 ! R3    R(1,8)                  1.07           estimate D2E/DX2                !
 ! R4    R(2,3)                  1.4379         estimate D2E/DX2                !
 ! R5    R(2,9)                  1.07           estimate D2E/DX2                !
 ! R6    R(3,5)                  1.3403         estimate D2E/DX2                !
 ! R7    R(3,10)                 1.07           estimate D2E/DX2                !
 ! R8    R(4,6)                  1.3403         estimate D2E/DX2                !
 ! R9    R(4,14)                 1.54           estimate D2E/DX2                !
 ! R10   R(5,7)                  1.4912         estimate D2E/DX2                !
 ! R11   R(5,11)                 1.07           estimate D2E/DX2                !
 ! R12   R(6,7)                  1.4912         estimate D2E/DX2                !
 ! R13   R(6,12)                 1.07           estimate D2E/DX2                !
 ! R14   R(7,13)                 1.07           estimate D2E/DX2                !
 ! R15   R(14,15)                1.07           estimate D2E/DX2                !
 ! R16   R(14,16)                1.07           estimate D2E/DX2                !
 ! R17   R(14,17)                1.07           estimate D2E/DX2                !
 ! A1    A(2,1,4)              129.7142         estimate D2E/DX2                !
 ! A2    A(2,1,8)              115.1096         estimate D2E/DX2                !
 ! A3    A(4,1,8)              115.1561         estimate D2E/DX2                !
 ! A4    A(1,2,3)              129.7144         estimate D2E/DX2                !
 ! A5    A(1,2,9)              115.1096         estimate D2E/DX2                !
 ! A6    A(3,2,9)              115.156          estimate D2E/DX2                !
 ! A7    A(2,3,5)              123.4331         estimate D2E/DX2                !
 ! A8    A(2,3,10)             118.2795         estimate D2E/DX2                !
 ! A9    A(5,3,10)             118.2873         estimate D2E/DX2                !
 ! A10   A(1,4,6)              123.4332         estimate D2E/DX2                !
 ! A11   A(1,4,14)             118.2797         estimate D2E/DX2                !
 ! A12   A(6,4,14)             118.287          estimate D2E/DX2                !
 ! A13   A(3,5,7)              115.3977         estimate D2E/DX2                !
 ! A14   A(3,5,11)             122.3177         estimate D2E/DX2                !
 ! A15   A(7,5,11)             122.2823         estimate D2E/DX2                !
 ! A16   A(4,6,7)              115.398          estimate D2E/DX2                !
 ! A17   A(4,6,12)             122.3175         estimate D2E/DX2                !
 ! A18   A(7,6,12)             122.2822         estimate D2E/DX2                !
 ! A19   A(5,7,6)              117.4983         estimate D2E/DX2                !
 ! A20   A(5,7,13)             121.2288         estimate D2E/DX2                !
 ! A21   A(6,7,13)             121.2288         estimate D2E/DX2                !
 ! A22   A(4,14,15)            109.4712         estimate D2E/DX2                !
 ! A23   A(4,14,16)            109.4712         estimate D2E/DX2                !
 ! A24   A(4,14,17)            109.4712         estimate D2E/DX2                !
 ! A25   A(15,14,16)           109.4712         estimate D2E/DX2                !
 ! A26   A(15,14,17)           109.4712         estimate D2E/DX2                !
 ! A27   A(16,14,17)           109.4712         estimate D2E/DX2                !
 ! D1    D(4,1,2,3)              0.0012         estimate D2E/DX2                !
 ! D2    D(4,1,2,9)           -178.2709         estimate D2E/DX2                !
 ! D3    D(8,1,2,3)            178.2731         estimate D2E/DX2                !
 ! D4    D(8,1,2,9)              0.001          estimate D2E/DX2                !
 ! D5    D(2,1,4,6)            -17.2082         estimate D2E/DX2                !
 ! D6    D(2,1,4,14)           162.6762         estimate D2E/DX2                !
 ! D7    D(8,1,4,6)            164.5205         estimate D2E/DX2                !
 ! D8    D(8,1,4,14)           -15.595          estimate D2E/DX2                !
 ! D9    D(1,2,3,5)             17.2051         estimate D2E/DX2                !
 ! D10   D(1,2,3,10)          -162.6716         estimate D2E/DX2                !
 ! D11   D(9,2,3,5)           -164.5235         estimate D2E/DX2                !
 ! D12   D(9,2,3,10)            15.5998         estimate D2E/DX2                !
 ! D13   D(2,3,5,7)             17.9437         estimate D2E/DX2                !
 ! D14   D(2,3,5,11)          -162.5965         estimate D2E/DX2                !
 ! D15   D(10,3,5,7)          -162.1796         estimate D2E/DX2                !
 ! D16   D(10,3,5,11)           17.2802         estimate D2E/DX2                !
 ! D17   D(1,4,6,7)            -17.9404         estimate D2E/DX2                !
 ! D18   D(1,4,6,12)           162.5996         estimate D2E/DX2                !
 ! D19   D(14,4,6,7)           162.1751         estimate D2E/DX2                !
 ! D20   D(14,4,6,12)          -17.2849         estimate D2E/DX2                !
 ! D21   D(1,4,14,15)          -29.9453         estimate D2E/DX2                !
 ! D22   D(1,4,14,16)           90.0547         estimate D2E/DX2                !
 ! D23   D(1,4,14,17)         -149.9453         estimate D2E/DX2                !
 ! D24   D(6,4,14,15)          149.9453         estimate D2E/DX2                !
 ! D25   D(6,4,14,16)          -90.0547         estimate D2E/DX2                !
 ! D26   D(6,4,14,17)           29.9453         estimate D2E/DX2                !
 ! D27   D(3,5,7,6)            -76.9922         estimate D2E/DX2                !
 ! D28   D(3,5,7,13)           100.6221         estimate D2E/DX2                !
 ! D29   D(11,5,7,6)           103.5477         estimate D2E/DX2                !
 ! D30   D(11,5,7,13)          -78.838          estimate D2E/DX2                !
 ! D31   D(4,6,7,5)             76.9905         estimate D2E/DX2                !
 ! D32   D(4,6,7,13)          -100.6238         estimate D2E/DX2                !
 ! D33   D(12,6,7,5)          -103.5493         estimate D2E/DX2                !
 ! D34   D(12,6,7,13)           78.8364         estimate D2E/DX2                !
 --------------------------------------------------------------------------------
 Trust Radius=3.00D-01 FncErr=1.00D-07 GrdErr=1.00D-07 EigMax=2.50D+02 EigMin=1.00D-04
 Number of steps in this run=     88 maximum allowed number of steps=    102.
 GradGradGradGradGradGradGradGradGradGradGradGradGradGradGradGradGradGrad

                          Input orientation:                          
 ---------------------------------------------------------------------
 Center     Atomic      Atomic             Coordinates (Angstroms)
 Number     Number       Type             X           Y           Z
 ---------------------------------------------------------------------
      1          6           0       -1.015959    1.125480   -0.230020
      2          6           0        0.394822    1.125830   -0.164874
      3          6           0        1.303072    2.213801    0.077790
      4          6           0       -1.943241    2.213002   -0.072137
      5          6           0        0.927627    3.383764    0.613146
      6          6           0       -1.619324    3.383128    0.495545
      7          6           0       -0.381522    3.369684    1.327012
      8          1           0       -1.459874    0.178265   -0.455011
      9          1           0        0.858052    0.178843   -0.347993
     10          1           0        2.332163    2.083187   -0.184532
     11          1           0        1.529860    4.265262    0.541197
     12          1           0       -2.212816    4.264322    0.368407
     13          1           0       -0.430791    3.312581    2.394351
     14          6           0       -3.383204    2.024251   -0.584465
     15          1           0       -3.380112    1.353540   -1.418154
     16          1           0       -3.989744    1.618048    0.197845
     17          1           0       -3.780250    2.970021   -0.889054
 ---------------------------------------------------------------------
                    Distance matrix (angstroms):
                    1          2          3          4          5
     1  C    0.000000
     2  C    1.412284   0.000000
     3  C    2.580134   1.437875   0.000000
     4  C    1.437874   2.580132   3.249773   0.000000
     5  C    3.096498   2.446929   1.340291   3.175244   0.000000
     6  C    2.446930   3.096503   3.175255   1.340291   2.549664
     7  C    2.804159   2.804160   2.394677   2.394681   1.491199
     8  H    1.070000   2.102846   3.472918   2.126121   4.137191
     9  H    2.102845   1.070000   2.126121   3.472916   3.346663
    10  H    3.482698   2.161066   1.070000   4.278850   2.073768
    11  H    4.115118   3.412166   2.115342   4.080488   1.070000
    12  H    3.412171   4.115130   4.080510   2.115340   3.270728
    13  H    3.466000   3.465999   3.095166   3.095181   2.241217
    14  C    2.556809   3.905982   4.736633   1.540000   4.676089
    15  H    2.655728   3.984054   4.991003   2.148263   5.177316
    16  H    3.044518   4.426992   5.327592   2.148263   5.241255
    17  H    3.387914   4.621331   5.229419   2.148263   4.959021
                    6          7          8          9         10
     6  C    0.000000
     7  C    1.491198   0.000000
     8  H    3.346659   3.810985   0.000000
     9  H    4.137196   3.810991   2.320396   0.000000
    10  H    4.215044   3.362131   4.252227   2.413763   0.000000
    11  H    3.270719   2.252320   5.160861   4.235659   2.435533
    12  H    1.070000   2.252318   4.235658   5.160872   5.071481
    13  H    2.241217   1.070000   4.359108   4.359115   3.974413
    14  C    2.474720   3.804475   2.669011   4.631383   5.729645
    15  H    3.298764   4.537875   2.448719   4.526278   5.889337
    16  H    2.970357   4.166834   2.983192   5.086293   6.350517
    17  H    2.599495   4.077013   3.656014   5.440337   6.216463
                   11         12         13         14         15
    11  H    0.000000
    12  H    3.746663   0.000000
    13  H    2.861107   2.861097   0.000000
    14  C    5.516107   2.701053   4.387469   0.000000
    15  H    6.035313   3.609298   5.203031   1.070000   0.000000
    16  H    6.131203   3.192072   4.512452   1.070000   1.747303
    17  H    5.649826   2.390246   4.702869   1.070000   1.747303
                   16         17
    16  H    0.000000
    17  H    1.747303   0.000000
 Stoichiometry    C8H9(1+)
 Framework group  C1[X(C8H9)]
 Deg. of freedom    45
 Full point group                 C1      NOp   1
 Largest Abelian subgroup         C1      NOp   1
 Largest concise Abelian subgroup C1      NOp   1
                         Standard orientation:                         
 ---------------------------------------------------------------------
 Center     Atomic      Atomic             Coordinates (Angstroms)
 Number     Number       Type             X           Y           Z
 ---------------------------------------------------------------------
      1          6           0        0.445631    1.192695    0.226962
      2          6           0       -0.940504    1.439099    0.115334
      3          6           0       -2.004016    0.549595   -0.265728
      4          6           0        1.185589   -0.017396   -0.008887
      5          6           0       -1.884292   -0.785330   -0.270203
      6          6           0        0.618163   -1.230176   -0.068667
      7          6           0       -0.745980   -1.328051    0.525645
      8          1           0        1.036539    2.040303    0.504970
      9          1           0       -1.240892    2.445152    0.321549
     10          1           0       -2.939329    0.975812   -0.563098
     11          1           0       -2.563953   -1.418843   -0.800884
     12          1           0        1.113334   -2.072537   -0.504708
     13          1           0       -0.897334   -1.736755    1.502862
     14          6           0        2.709476    0.085836   -0.205636
     15          1           0        2.949180    1.031845   -0.644395
     16          1           0        3.198224   -0.001825    0.742172
     17          1           0        3.039829   -0.700784   -0.851388
 ---------------------------------------------------------------------
 Rotational constants (GHZ):           3.9965692           1.8033139           1.3201329
 Standard basis: 3-21G (6D, 7F)
 There are    90 symmetry adapted cartesian basis functions of A   symmetry.
 There are    90 symmetry adapted basis functions of A   symmetry.
    90 basis functions,   147 primitive gaussians,    90 cartesian basis functions
    28 alpha electrons       28 beta electrons
       nuclear repulsion energy       331.6674190351 Hartrees.
 NAtoms=   17 NActive=   17 NUniq=   17 SFac= 1.00D+00 NAtFMM=   60 NAOKFM=F Big=F
 Integral buffers will be    131072 words long.
 Raffenetti 1 integral format.
 Two-electron integral symmetry is turned on.
 One-electron integrals computed using PRISM.
 NBasis=    90 RedAO= T EigKep=  3.74D-03  NBF=    90
 NBsUse=    90 1.00D-06 EigRej= -1.00D+00 NBFU=    90
 ExpMin= 1.83D-01 ExpMax= 1.72D+02 ExpMxC= 1.72D+02 IAcc=3 IRadAn=         5 AccDes= 0.00D+00
 Harris functional with IExCor=  205 and IRadAn=       5 diagonalized for initial guess.
 HarFok:  IExCor=  205 AccDes= 0.00D+00 IRadAn=         5 IDoV= 1 UseB2=F ITyADJ=14
 ICtDFT=  3500011 ScaDFX=  1.000000  1.000000  1.000000  1.000000
 FoFCou: FMM=F IPFlag=           0 FMFlag=      100000 FMFlg1=           0
         NFxFlg=           0 DoJE=T BraDBF=F KetDBF=T FulRan=T
         wScrn=  0.000000 ICntrl=       500 IOpCl=  0 I1Cent=   200000004 NGrid=           0
         NMat0=    1 NMatS0=      1 NMatT0=    0 NMatD0=    1 NMtDS0=    0 NMtDT0=    0
 Petite list used in FoFCou.
 Keep R1 ints in memory in canonical form, NReq=9231310.
 Requested convergence on RMS density matrix=1.00D-08 within 128 cycles.
 Requested convergence on MAX density matrix=1.00D-06.
 Requested convergence on             energy=1.00D-06.
 No special actions if energy rises.
 SCF Done:  E(RHF) =  -306.085450669     A.U. after   18 cycles
            NFock= 18  Conv=0.15D-08     -V/T= 2.0026

 **********************************************************************

            Population analysis using the SCF Density.

 **********************************************************************

 Orbital symmetries:
       Occupied  (A) (A) (A) (A) (A) (A) (A) (A) (A) (A) (A) (A)
                 (A) (A) (A) (A) (A) (A) (A) (A) (A) (A) (A) (A)
                 (A) (A) (A) (A)
       Virtual   (A) (A) (A) (A) (A) (A) (A) (A) (A) (A) (A) (A)
                 (A) (A) (A) (A) (A) (A) (A) (A) (A) (A) (A) (A)
                 (A) (A) (A) (A) (A) (A) (A) (A) (A) (A) (A) (A)
                 (A) (A) (A) (A) (A) (A) (A) (A) (A) (A) (A) (A)
                 (A) (A) (A) (A) (A) (A) (A) (A) (A) (A) (A) (A)
                 (A) (A)
 The electronic state is 1-A.
 Alpha  occ. eigenvalues --  -11.53648 -11.40293 -11.39957 -11.39365 -11.38976
 Alpha  occ. eigenvalues --  -11.37389 -11.37100 -11.31811  -1.36297  -1.27832
 Alpha  occ. eigenvalues --   -1.23506  -1.14445  -1.08705  -1.04949  -0.94670
 Alpha  occ. eigenvalues --   -0.90891  -0.89005  -0.84507  -0.82463  -0.78807
 Alpha  occ. eigenvalues --   -0.75180  -0.73442  -0.70518  -0.69236  -0.68302
 Alpha  occ. eigenvalues --   -0.63958  -0.54755  -0.49578
 Alpha virt. eigenvalues --   -0.19034  -0.11074  -0.01036   0.09975   0.11104
 Alpha virt. eigenvalues --    0.11134   0.13506   0.16032   0.17544   0.18911
 Alpha virt. eigenvalues --    0.20901   0.22115   0.23074   0.23909   0.27416
 Alpha virt. eigenvalues --    0.30725   0.33697   0.38708   0.43442   0.47246
 Alpha virt. eigenvalues --    0.52512   0.69728   0.72855   0.73628   0.74968
 Alpha virt. eigenvalues --    0.75410   0.79725   0.81134   0.83122   0.83948
 Alpha virt. eigenvalues --    0.86366   0.87660   0.90714   0.91676   0.94710
 Alpha virt. eigenvalues --    0.96061   0.99744   1.00632   1.02073   1.04346
 Alpha virt. eigenvalues --    1.06242   1.11550   1.13051   1.15758   1.18364
 Alpha virt. eigenvalues --    1.21994   1.22825   1.23434   1.28254   1.30707
 Alpha virt. eigenvalues --    1.39786   1.40839   1.47939   1.50207   1.56622
 Alpha virt. eigenvalues --    1.59901   1.65556   1.77030   1.88863   1.99045
 Alpha virt. eigenvalues --    2.07010   2.30011
          Condensed to atoms (all electrons):
               1          2          3          4          5          6
     1  C    5.187183   0.540418  -0.076444   0.344056  -0.002813  -0.094378
     2  C    0.540418   5.186635   0.363523  -0.077523  -0.109866  -0.003072
     3  C   -0.076444   0.363523   5.231451  -0.000001   0.446594   0.008898
     4  C    0.344056  -0.077523  -0.000001   5.430786   0.008725   0.439999
     5  C   -0.002813  -0.109866   0.446594   0.008725   5.443863  -0.101860
     6  C   -0.094378  -0.003072   0.008898   0.439999  -0.101860   5.450635
     7  C   -0.002855  -0.005968  -0.118696  -0.123942   0.328688   0.343602
     8  H    0.395064  -0.029427   0.001832  -0.039392  -0.000106   0.002403
     9  H   -0.031720   0.390068  -0.035761   0.001991   0.002587  -0.000106
    10  H    0.001005  -0.022586   0.386660  -0.000041  -0.033314   0.000007
    11  H    0.000008   0.001637  -0.019188   0.000008   0.366261   0.000897
    12  H    0.001640   0.000014  -0.000018  -0.021753   0.001091   0.371428
    13  H    0.001159   0.001195   0.000541   0.000742  -0.039525  -0.038629
    14  C   -0.048216   0.000932  -0.000024   0.222682   0.000008  -0.067010
    15  H   -0.001502   0.000192  -0.000000  -0.049433   0.000003   0.003069
    16  H    0.000352  -0.000031   0.000000  -0.047536  -0.000003  -0.002131
    17  H    0.002643  -0.000039   0.000003  -0.050452   0.000001  -0.000344
               7          8          9         10         11         12
     1  C   -0.002855   0.395064  -0.031720   0.001005   0.000008   0.001640
     2  C   -0.005968  -0.029427   0.390068  -0.022586   0.001637   0.000014
     3  C   -0.118696   0.001832  -0.035761   0.386660  -0.019188  -0.000018
     4  C   -0.123942  -0.039392   0.001991  -0.000041   0.000008  -0.021753
     5  C    0.328688  -0.000106   0.002587  -0.033314   0.366261   0.001091
     6  C    0.343602   0.002403  -0.000106   0.000007   0.000897   0.371428
     7  C    5.184298  -0.000060  -0.000055   0.001481  -0.019487  -0.018908
     8  H   -0.000060   0.370918  -0.001961  -0.000019   0.000000  -0.000033
     9  H   -0.000055  -0.001961   0.369318  -0.001145  -0.000030   0.000000
    10  H    0.001481  -0.000019  -0.001145   0.335764  -0.001592   0.000000
    11  H   -0.019487   0.000000  -0.000030  -0.001592   0.312032  -0.000051
    12  H   -0.018908  -0.000033   0.000000   0.000000  -0.000051   0.319548
    13  H    0.351188   0.000013   0.000012  -0.000013  -0.000325  -0.000409
    14  C    0.001752  -0.001443  -0.000024   0.000000   0.000000  -0.001846
    15  H   -0.000047   0.000186   0.000001   0.000000   0.000000   0.000109
    16  H   -0.000171   0.000209   0.000001  -0.000000   0.000000  -0.000097
    17  H    0.000121   0.000025   0.000000  -0.000000  -0.000000   0.001411
              13         14         15         16         17
     1  C    0.001159  -0.048216  -0.001502   0.000352   0.002643
     2  C    0.001195   0.000932   0.000192  -0.000031  -0.000039
     3  C    0.000541  -0.000024  -0.000000   0.000000   0.000003
     4  C    0.000742   0.222682  -0.049433  -0.047536  -0.050452
     5  C   -0.039525   0.000008   0.000003  -0.000003   0.000001
     6  C   -0.038629  -0.067010   0.003069  -0.002131  -0.000344
     7  C    0.351188   0.001752  -0.000047  -0.000171   0.000121
     8  H    0.000013  -0.001443   0.000186   0.000209   0.000025
     9  H    0.000012  -0.000024   0.000001   0.000001   0.000000
    10  H   -0.000013   0.000000   0.000000  -0.000000  -0.000000
    11  H   -0.000325   0.000000   0.000000   0.000000  -0.000000
    12  H   -0.000409  -0.001846   0.000109  -0.000097   0.001411
    13  H    0.354058  -0.000010  -0.000001   0.000013  -0.000002
    14  C   -0.000010   5.341285   0.383135   0.376432   0.384759
    15  H   -0.000001   0.383135   0.439343  -0.020012  -0.019618
    16  H    0.000013   0.376432  -0.020012   0.434881  -0.018492
    17  H   -0.000002   0.384759  -0.019618  -0.018492   0.444168
 Mulliken charges:
               1
     1  C   -0.215600
     2  C   -0.236104
     3  C   -0.189369
     4  C   -0.038918
     5  C   -0.310335
     6  C   -0.313407
     7  C    0.079058
     8  H    0.301791
     9  H    0.306824
    10  H    0.333793
    11  H    0.359830
    12  H    0.347876
    13  H    0.369993
    14  C   -0.592409
    15  H    0.264577
    16  H    0.276586
    17  H    0.255815
 Sum of Mulliken charges =   1.00000
 Mulliken charges with hydrogens summed into heavy atoms:
               1
     1  C    0.086191
     2  C    0.070719
     3  C    0.144424
     4  C   -0.038918
     5  C    0.049495
     6  C    0.034469
     7  C    0.449051
    14  C    0.204569
 Electronic spatial extent (au):  <R**2>=            918.8946
 Charge=              1.0000 electrons
 Dipole moment (field-independent basis, Debye):
    X=             -1.8206    Y=             -2.6468    Z=              1.0601  Tot=              3.3829
 Quadrupole moment (field-independent basis, Debye-Ang):
   XX=            -28.3266   YY=            -32.3824   ZZ=            -46.8684
   XY=              1.7902   XZ=              0.3970   YZ=             -0.2572
 Traceless Quadrupole moment (field-independent basis, Debye-Ang):
   XX=              7.5325   YY=              3.4767   ZZ=            -11.0093
   XY=              1.7902   XZ=              0.3970   YZ=             -0.2572
 Octapole moment (field-independent basis, Debye-Ang**2):
  XXX=             -3.4419  YYY=             -5.7515  ZZZ=              4.6285  XYY=             -7.8616
  XXY=              0.6519  XXZ=            -10.3220  XZZ=             -0.9425  YZZ=             -6.9050
  YYZ=              3.2575  XYZ=              3.1464
 Hexadecapole moment (field-independent basis, Debye-Ang**3):
 XXXX=           -663.1296 YYYY=           -297.3442 ZZZZ=            -81.8230 XXXY=             -3.0477
 XXXZ=             26.5421 YYYX=              1.2867 YYYZ=              7.2173 ZZZX=             -2.4177
 ZZZY=             -6.9711 XXYY=           -157.1393 XXZZ=           -138.4219 YYZZ=            -67.8486
 XXYZ=              6.3336 YYXZ=             -5.0618 ZZXY=              6.3437
 N-N= 3.316674190351D+02 E-N=-1.363201357060D+03  KE= 3.052873131066D+02
 Calling FoFJK, ICntrl=      2127 FMM=F ISym2X=0 I1Cent= 0 IOpClX= 0 NMat=1 NMatS=1 NMatT=0.
 ***** Axes restored to original set *****
 -------------------------------------------------------------------
 Center     Atomic                   Forces (Hartrees/Bohr)
 Number     Number              X              Y              Z
 -------------------------------------------------------------------
      1        6           0.061708006   -0.012209328    0.010645772
      2        6          -0.057069501   -0.014070395    0.003281002
      3        6          -0.016382109    0.006583969   -0.008433626
      4        6          -0.002203444    0.004123146   -0.017448250
      5        6          -0.024470337   -0.021377846    0.008869988
      6        6           0.032995587   -0.013827140    0.014462537
      7        6          -0.001903101    0.028984107   -0.042090711
      8        1           0.000838838   -0.001640662   -0.003366002
      9        1          -0.000550628   -0.001482810   -0.003782490
     10        1          -0.000126779    0.000953951   -0.007983024
     11        1           0.003485920    0.002760121    0.020519451
     12        1          -0.006119492    0.002015143    0.020780678
     13        1           0.000293461    0.019412042    0.007992382
     14        6           0.023012588    0.001415849   -0.001712613
     15        1          -0.002750223   -0.004629000   -0.006763091
     16        1          -0.005269767   -0.003868459    0.007394422
     17        1          -0.005489018    0.006857311   -0.002366426
 -------------------------------------------------------------------
 Cartesian Forces:  Max     0.061708006 RMS     0.017559159

 GradGradGradGradGradGradGradGradGradGradGradGradGradGradGradGradGradGrad
 Berny optimization.
 FormGI is forming the generalized inverse of G from B-inverse, IUseBI=4.
 Internal  Forces:  Max     0.064316730 RMS     0.011570230
 Search for a local minimum.
 Step number   1 out of a maximum of   88
 All quantities printed in internal units (Hartrees-Bohrs-Radians)
 Mixed Optimization -- RFO/linear search
 Second derivative matrix not updated -- first step.
 ITU=  0
     Eigenvalues ---    0.00237   0.00884   0.01409   0.01665   0.01697
     Eigenvalues ---    0.01749   0.01784   0.01920   0.02159   0.02342
     Eigenvalues ---    0.02384   0.04248   0.07243   0.07243   0.15980
     Eigenvalues ---    0.15992   0.15994   0.15999   0.15999   0.16000
     Eigenvalues ---    0.16000   0.16000   0.16000   0.16437   0.18878
     Eigenvalues ---    0.22000   0.23418   0.25000   0.28519   0.31961
     Eigenvalues ---    0.32219   0.37230   0.37230   0.37230   0.37230
     Eigenvalues ---    0.37230   0.37230   0.37230   0.37230   0.37230
     Eigenvalues ---    0.38575   0.38893   0.42721   0.54293   0.56907
 RFO step:  Lambda=-4.64203131D-02 EMin= 2.36824245D-03
 Linear search not attempted -- first point.
 Iteration  1 RMS(Cart)=  0.08935584 RMS(Int)=  0.00419547
 Iteration  2 RMS(Cart)=  0.00526797 RMS(Int)=  0.00196601
 Iteration  3 RMS(Cart)=  0.00001849 RMS(Int)=  0.00196597
 Iteration  4 RMS(Cart)=  0.00000003 RMS(Int)=  0.00196597
 Variable       Old X    -DE/DX   Delta X   Delta X   Delta X     New X
                                 (Linear)    (Quad)   (Total)
    R1        2.66883  -0.06432   0.00000  -0.14519  -0.14495   2.52388
    R2        2.71719   0.01030   0.00000   0.01561   0.01574   2.73293
    R3        2.02201   0.00181   0.00000   0.00433   0.00433   2.02633
    R4        2.71719   0.00577   0.00000   0.00387   0.00403   2.72122
    R5        2.02201   0.00172   0.00000   0.00411   0.00411   2.02612
    R6        2.53278   0.00814   0.00000   0.01493   0.01489   2.54767
    R7        2.02201   0.00172   0.00000   0.00410   0.00410   2.02611
    R8        2.53278   0.01602   0.00000   0.02906   0.02900   2.56178
    R9        2.91018  -0.00771   0.00000  -0.02326  -0.02326   2.88692
   R10        2.81796  -0.03484   0.00000  -0.07883  -0.07905   2.73891
   R11        2.02201   0.00286   0.00000   0.00682   0.00682   2.02883
   R12        2.81796  -0.03745   0.00000  -0.08556  -0.08574   2.73222
   R13        2.02201   0.00258   0.00000   0.00617   0.00617   2.02818
   R14        2.02201   0.00692   0.00000   0.01653   0.01653   2.03854
   R15        2.02201   0.00816   0.00000   0.01950   0.01950   2.04150
   R16        2.02201   0.00986   0.00000   0.02355   0.02355   2.04556
   R17        2.02201   0.00877   0.00000   0.02095   0.02095   2.04296
    A1        2.26394  -0.00527   0.00000  -0.02479  -0.02497   2.23897
    A2        2.00904   0.00100   0.00000   0.00410   0.00379   2.01284
    A3        2.00985   0.00418   0.00000   0.01943   0.01891   2.02876
    A4        2.26394  -0.00846   0.00000  -0.03981  -0.04001   2.22393
    A5        2.00904   0.00257   0.00000   0.01154   0.01124   2.02028
    A6        2.00985   0.00579   0.00000   0.02702   0.02650   2.03635
    A7        2.15431   0.01269   0.00000   0.06548   0.06357   2.21789
    A8        2.06437  -0.00808   0.00000  -0.04113  -0.04016   2.02420
    A9        2.06450  -0.00461   0.00000  -0.02436  -0.02342   2.04108
   A10        2.15432   0.00808   0.00000   0.04887   0.04699   2.20131
   A11        2.06437  -0.00842   0.00000  -0.03917  -0.03830   2.02607
   A12        2.06450   0.00033   0.00000  -0.00967  -0.00874   2.05576
   A13        2.01407   0.00639   0.00000   0.07247   0.07075   2.08482
   A14        2.13485   0.00664   0.00000   0.01130   0.01216   2.14700
   A15        2.13423  -0.01303   0.00000  -0.08375  -0.08288   2.05135
   A16        2.01407   0.00637   0.00000   0.07510   0.07361   2.08769
   A17        2.13484   0.00618   0.00000   0.00762   0.00828   2.14313
   A18        2.13423  -0.01255   0.00000  -0.08287  -0.08210   2.05212
   A19        2.05073  -0.00496   0.00000   0.01089   0.00206   2.05279
   A20        2.11584   0.00162   0.00000  -0.00972  -0.00589   2.10995
   A21        2.11584   0.00301   0.00000  -0.00312   0.00071   2.11655
   A22        1.91063   0.00395   0.00000   0.02033   0.02024   1.93087
   A23        1.91063  -0.00199   0.00000  -0.01116  -0.01111   1.89952
   A24        1.91063   0.00284   0.00000   0.01409   0.01399   1.92462
   A25        1.91063  -0.00123   0.00000  -0.00665  -0.00660   1.90403
   A26        1.91063  -0.00231   0.00000  -0.00813  -0.00835   1.90228
   A27        1.91063  -0.00126   0.00000  -0.00848  -0.00844   1.90219
    D1        0.00002   0.00053   0.00000   0.00594   0.00603   0.00605
    D2       -3.11141   0.00468   0.00000   0.05946   0.05679  -3.05462
    D3        3.11145  -0.00372   0.00000  -0.04793  -0.04518   3.06627
    D4        0.00002   0.00043   0.00000   0.00559   0.00558   0.00560
    D5       -0.30034  -0.00327   0.00000  -0.03820  -0.03476  -0.33510
    D6        2.83924  -0.00308   0.00000  -0.02564  -0.02182   2.81742
    D7        2.87142   0.00103   0.00000   0.01592   0.01707   2.88850
    D8       -0.27218   0.00122   0.00000   0.02847   0.03001  -0.24217
    D9        0.30029   0.00321   0.00000   0.03594   0.03253   0.33281
   D10       -2.83915   0.00402   0.00000   0.03945   0.03551  -2.80364
   D11       -2.87148  -0.00099   0.00000  -0.01782  -0.01887  -2.89035
   D12        0.27227  -0.00018   0.00000  -0.01431  -0.01588   0.25638
   D13        0.31318  -0.00474   0.00000  -0.07747  -0.08204   0.23113
   D14       -2.83784  -0.00344   0.00000  -0.07594  -0.07785  -2.91570
   D15       -2.83057  -0.00555   0.00000  -0.08100  -0.08507  -2.91564
   D16        0.30160  -0.00425   0.00000  -0.07948  -0.08088   0.22072
   D17       -0.31312   0.00402   0.00000   0.06909   0.07338  -0.23974
   D18        2.83790   0.00359   0.00000   0.08654   0.08859   2.92649
   D19        2.83049   0.00383   0.00000   0.05657   0.06028   2.89077
   D20       -0.30168   0.00341   0.00000   0.07402   0.07549  -0.22619
   D21       -0.52264   0.00006   0.00000  -0.00920  -0.00905  -0.53170
   D22        1.57175  -0.00024   0.00000  -0.01173  -0.01170   1.56005
   D23       -2.61704  -0.00126   0.00000  -0.02032  -0.02038  -2.63742
   D24        2.61704   0.00026   0.00000   0.00276   0.00283   2.61987
   D25       -1.57175  -0.00004   0.00000   0.00023   0.00019  -1.57157
   D26        0.52264  -0.00106   0.00000  -0.00835  -0.00850   0.51415
   D27       -1.34377   0.01777   0.00000   0.20695   0.20715  -1.13662
   D28        1.75619   0.00883   0.00000   0.15411   0.15518   1.91137
   D29        1.80725   0.01635   0.00000   0.20486   0.20268   2.00993
   D30       -1.37598   0.00741   0.00000   0.15203   0.15071  -1.22527
   D31        1.34374  -0.01821   0.00000  -0.20199  -0.20279   1.14095
   D32       -1.75622  -0.00924   0.00000  -0.14899  -0.15044  -1.90666
   D33       -1.80728  -0.01768   0.00000  -0.21890  -0.21673  -2.02401
   D34        1.37595  -0.00870   0.00000  -0.16590  -0.16438   1.21157
         Item               Value     Threshold  Converged?
 Maximum Force            0.064317     0.000450     NO 
 RMS     Force            0.011570     0.000300     NO 
 Maximum Displacement     0.496313     0.001800     NO 
 RMS     Displacement     0.090080     0.001200     NO 
 Predicted change in Energy=-3.275156D-02
 GradGradGradGradGradGradGradGradGradGradGradGradGradGradGradGradGradGrad

                          Input orientation:                          
 ---------------------------------------------------------------------
 Center     Atomic      Atomic             Coordinates (Angstroms)
 Number     Number       Type             X           Y           Z
 ---------------------------------------------------------------------
      1          6           0       -0.995841    1.077252   -0.234767
      2          6           0        0.338756    1.069478   -0.184087
      3          6           0        1.211463    2.187159    0.066508
      4          6           0       -1.892622    2.198256   -0.059718
      5          6           0        0.882860    3.362434    0.639489
      6          6           0       -1.591738    3.376470    0.539476
      7          6           0       -0.385717    3.489087    1.328936
      8          1           0       -1.449965    0.144929   -0.507440
      9          1           0        0.808707    0.136629   -0.425953
     10          1           0        2.230808    2.065693   -0.242902
     11          1           0        1.523316    4.223780    0.616367
     12          1           0       -2.225598    4.240133    0.474609
     13          1           0       -0.425887    3.575219    2.403490
     14          6           0       -3.311546    2.013310   -0.594786
     15          1           0       -3.313103    1.351584   -1.448718
     16          1           0       -3.926480    1.584892    0.186266
     17          1           0       -3.728654    2.966704   -0.887714
 ---------------------------------------------------------------------
                    Distance matrix (angstroms):
                    1          2          3          4          5
     1  C    0.000000
     2  C    1.335581   0.000000
     3  C    2.488946   1.440009   0.000000
     4  C    1.446205   2.503728   3.106671   0.000000
     5  C    3.084784   2.496392   1.348169   3.089903   0.000000
     6  C    2.498188   3.093955   3.081574   1.355637   2.476658
     7  C    2.938428   2.944250   2.416552   2.421852   1.449367
     8  H    1.072290   2.039331   3.403428   2.147685   4.136406
     9  H    2.043947   1.072175   2.146951   3.417838   3.398011
    10  H    3.374662   2.139104   1.072172   4.129626   2.068119
    11  H    4.119614   3.463168   2.132469   4.028458   1.073610
    12  H    3.466891   4.130720   4.024257   2.136736   3.234200
    13  H    3.677646   3.682251   3.173186   3.180367   2.206761
    14  C    2.523550   3.792650   4.574401   1.527694   4.575654
    15  H    2.630330   3.874912   4.844150   2.159616   5.100022
    16  H    3.003932   4.312197   5.174507   2.138527   5.147311
    17  H    3.385946   4.542948   5.091462   2.155714   4.873911
                    6          7          8          9         10
     6  C    0.000000
     7  C    1.445827   0.000000
     8  H    3.399851   3.960845   0.000000
     9  H    4.146174   3.968029   2.260157   0.000000
    10  H    4.116080   3.367927   4.160217   2.403573   0.000000
    11  H    3.229150   2.166088   5.171109   4.278072   2.428215
    12  H    1.073266   2.163124   4.282140   5.182351   5.010247
    13  H    2.207546   1.078749   4.614016   4.621024   4.042287
    14  C    2.470323   3.799881   2.638931   4.530665   5.553761
    15  H    3.319063   4.566604   2.411079   4.417180   5.718295
    16  H    2.964039   4.179551   2.947515   4.989416   6.190925
    17  H    2.602151   4.044953   3.646840   5.367513   6.061583
                   11         12         13         14         15
    11  H    0.000000
    12  H    3.751629   0.000000
    13  H    2.722836   2.720599   0.000000
    14  C    5.452427   2.698450   4.444801   0.000000
    15  H    5.992081   3.636698   5.302837   1.080316   0.000000
    16  H    6.070337   3.166456   4.596916   1.082464   1.761771
    17  H    5.605862   2.395145   4.702190   1.081085   1.759552
                   16         17
    16  H    0.000000
    17  H    1.761241   0.000000
 Stoichiometry    C8H9(1+)
 Framework group  C1[X(C8H9)]
 Deg. of freedom    45
 Full point group                 C1      NOp   1
 Largest Abelian subgroup         C1      NOp   1
 Largest concise Abelian subgroup C1      NOp   1
                         Standard orientation:                         
 ---------------------------------------------------------------------
 Center     Atomic      Atomic             Coordinates (Angstroms)
 Number     Number       Type             X           Y           Z
 ---------------------------------------------------------------------
      1          6           0        0.468483    1.221314    0.250916
      2          6           0       -0.830832    1.508670    0.136974
      3          6           0       -1.892080    0.619913   -0.259875
      4          6           0        1.132733   -0.038770    0.000977
      5          6           0       -1.868569   -0.728034   -0.253190
      6          6           0        0.541936   -1.257951   -0.047070
      7          6           0       -0.806125   -1.418766    0.450207
      8          1           0        1.102439    2.051663    0.492631
      9          1           0       -1.096342    2.535544    0.293800
     10          1           0       -2.794266    1.088412   -0.600641
     11          1           0       -2.609970   -1.328457   -0.745588
     12          1           0        1.040523   -2.131094   -0.422481
     13          1           0       -1.005794   -1.959385    1.362108
     14          6           0        2.643796    0.029317   -0.213269
     15          1           0        2.922500    0.971518   -0.662342
     16          1           0        3.137311   -0.065699    0.745449
     17          1           0        2.967557   -0.776658   -0.856952
 ---------------------------------------------------------------------
 Rotational constants (GHZ):           3.7807947           1.9176622           1.3441329
 Standard basis: 3-21G (6D, 7F)
 There are    90 symmetry adapted cartesian basis functions of A   symmetry.
 There are    90 symmetry adapted basis functions of A   symmetry.
    90 basis functions,   147 primitive gaussians,    90 cartesian basis functions
    28 alpha electrons       28 beta electrons
       nuclear repulsion energy       333.8607385210 Hartrees.
 NAtoms=   17 NActive=   17 NUniq=   17 SFac= 1.00D+00 NAtFMM=   60 NAOKFM=F Big=F
 Integral buffers will be    131072 words long.
 Raffenetti 1 integral format.
 Two-electron integral symmetry is turned on.
 One-electron integrals computed using PRISM.
 NBasis=    90 RedAO= T EigKep=  3.54D-03  NBF=    90
 NBsUse=    90 1.00D-06 EigRej= -1.00D+00 NBFU=    90
 Initial guess from the checkpoint file:  "cation.chk"
 B after Tr=    -0.000000   -0.000000   -0.000000
         Rot=    0.999839   -0.007978    0.001302    0.016042 Ang=  -2.06 deg.
 ExpMin= 1.83D-01 ExpMax= 1.72D+02 ExpMxC= 1.72D+02 IAcc=3 IRadAn=         5 AccDes= 0.00D+00
 Harris functional with IExCor=  205 and IRadAn=       5 diagonalized for initial guess.
 HarFok:  IExCor=  205 AccDes= 0.00D+00 IRadAn=         5 IDoV= 1 UseB2=F ITyADJ=14
 ICtDFT=  3500011 ScaDFX=  1.000000  1.000000  1.000000  1.000000
 FoFCou: FMM=F IPFlag=           0 FMFlag=      100000 FMFlg1=           0
         NFxFlg=           0 DoJE=T BraDBF=F KetDBF=T FulRan=T
         wScrn=  0.000000 ICntrl=       500 IOpCl=  0 I1Cent=   200000004 NGrid=           0
         NMat0=    1 NMatS0=      1 NMatT0=    0 NMatD0=    1 NMtDS0=    0 NMtDT0=    0
 Petite list used in FoFCou.
 Keep R1 ints in memory in canonical form, NReq=9231423.
 Requested convergence on RMS density matrix=1.00D-08 within 128 cycles.
 Requested convergence on MAX density matrix=1.00D-06.
 Requested convergence on             energy=1.00D-06.
 No special actions if energy rises.
 SCF Done:  E(RHF) =  -306.123572900     A.U. after   17 cycles
            NFock= 17  Conv=0.61D-08     -V/T= 2.0021
 Calling FoFJK, ICntrl=      2127 FMM=F ISym2X=0 I1Cent= 0 IOpClX= 0 NMat=1 NMatS=1 NMatT=0.
 ***** Axes restored to original set *****
 -------------------------------------------------------------------
 Center     Atomic                   Forces (Hartrees/Bohr)
 Number     Number              X              Y              Z
 -------------------------------------------------------------------
      1        6          -0.015315188    0.001623343    0.006151116
      2        6           0.016024197    0.002164728    0.006003090
      3        6          -0.004106103   -0.000367211   -0.014840367
      4        6           0.000615979   -0.002636502   -0.022394451
      5        6          -0.021080462   -0.015449711    0.007777569
      6        6           0.027795587   -0.010464045    0.012752880
      7        6          -0.003285072   -0.002327593   -0.023837297
      8        1          -0.004649099    0.002109835   -0.001068640
      9        1           0.004224435    0.001977709   -0.000475800
     10        1           0.000329210    0.000948101   -0.002974492
     11        1           0.009317009   -0.005270349    0.017565683
     12        1          -0.011961254   -0.005857154    0.017609751
     13        1           0.000331262    0.033164433   -0.002811742
     14        6           0.006350863    0.001380327    0.000015096
     15        1          -0.000834196   -0.000148407   -0.000065885
     16        1          -0.002127435   -0.000914672    0.000078821
     17        1          -0.001629732    0.000067170    0.000514668
 -------------------------------------------------------------------
 Cartesian Forces:  Max     0.033164433 RMS     0.010682710

 GradGradGradGradGradGradGradGradGradGradGradGradGradGradGradGradGradGrad
 Berny optimization.
 Using GEDIIS/GDIIS optimizer.
 FormGI is forming the generalized inverse of G from B-inverse, IUseBI=4.
 Internal  Forces:  Max     0.018529205 RMS     0.006411865
 Search for a local minimum.
 Step number   2 out of a maximum of   88
 All quantities printed in internal units (Hartrees-Bohrs-Radians)
 Mixed Optimization -- RFO/linear search
 Update second derivatives using D2CorX and points    1    2
 DE= -3.81D-02 DEPred=-3.28D-02 R= 1.16D+00
 TightC=F SS=  1.41D+00  RLast= 6.37D-01 DXNew= 5.0454D-01 1.9124D+00
 Trust test= 1.16D+00 RLast= 6.37D-01 DXMaxT set to 5.05D-01
 ITU=  1  0
 Use linear search instead of GDIIS.
     Eigenvalues ---    0.00237   0.00497   0.01435   0.01623   0.01716
     Eigenvalues ---    0.01729   0.01788   0.01935   0.02161   0.02386
     Eigenvalues ---    0.02535   0.03229   0.07052   0.07254   0.15576
     Eigenvalues ---    0.15906   0.15952   0.15997   0.15998   0.16000
     Eigenvalues ---    0.16000   0.16000   0.16809   0.17569   0.19335
     Eigenvalues ---    0.22281   0.24127   0.25081   0.28079   0.28767
     Eigenvalues ---    0.32357   0.37197   0.37230   0.37230   0.37230
     Eigenvalues ---    0.37230   0.37230   0.37230   0.37230   0.37302
     Eigenvalues ---    0.38342   0.38822   0.53982   0.56627   0.68188
 RFO step:  Lambda=-2.74219251D-02 EMin= 2.36763238D-03
 Quartic linear search produced a step of  0.61294.
 Iteration  1 RMS(Cart)=  0.08357823 RMS(Int)=  0.04792285
 Iteration  2 RMS(Cart)=  0.04727206 RMS(Int)=  0.00513570
 Iteration  3 RMS(Cart)=  0.00267637 RMS(Int)=  0.00425329
 Iteration  4 RMS(Cart)=  0.00000471 RMS(Int)=  0.00425329
 Iteration  5 RMS(Cart)=  0.00000001 RMS(Int)=  0.00425329
 Variable       Old X    -DE/DX   Delta X   Delta X   Delta X     New X
                                 (Linear)    (Quad)   (Total)
    R1        2.52388   0.01587  -0.08884   0.03235  -0.05463   2.46925
    R2        2.73293  -0.00616   0.00965  -0.01840  -0.00759   2.72534
    R3        2.02633   0.00041   0.00265   0.00121   0.00386   2.03019
    R4        2.72122  -0.00670   0.00247  -0.02059  -0.01705   2.70417
    R5        2.02612   0.00024   0.00252   0.00072   0.00324   2.02936
    R6        2.54767   0.00164   0.00912   0.00426   0.01295   2.56062
    R7        2.02611   0.00106   0.00252   0.00309   0.00561   2.03172
    R8        2.56178   0.00612   0.01778   0.01392   0.03127   2.59306
    R9        2.88692  -0.00187  -0.01425  -0.00638  -0.02063   2.86629
   R10        2.73891  -0.01411  -0.04845  -0.04094  -0.09097   2.64793
   R11        2.02883   0.00095   0.00418   0.00280   0.00698   2.03580
   R12        2.73222  -0.01853  -0.05255  -0.05508  -0.10925   2.62296
   R13        2.02818   0.00129   0.00378   0.00375   0.00754   2.03572
   R14        2.03854  -0.00017   0.01013  -0.00032   0.00981   2.04835
   R15        2.04150   0.00014   0.01195   0.00059   0.01254   2.05405
   R16        2.04556   0.00163   0.01444   0.00489   0.01933   2.06489
   R17        2.04296   0.00055   0.01284   0.00177   0.01461   2.05756
    A1        2.23897  -0.00239  -0.01530  -0.00223  -0.01769   2.22129
    A2        2.01284   0.00637   0.00233   0.03497   0.03733   2.05017
    A3        2.02876  -0.00397   0.01159  -0.03013  -0.01887   2.00989
    A4        2.22393  -0.00251  -0.02452  -0.00298  -0.02782   2.19612
    A5        2.02028   0.00593   0.00689   0.03223   0.03923   2.05950
    A6        2.03635  -0.00341   0.01624  -0.02668  -0.01066   2.02570
    A7        2.21789  -0.00074   0.03897   0.00714   0.04040   2.25829
    A8        2.02420   0.00034  -0.02462  -0.00280  -0.02466   1.99955
    A9        2.04108   0.00041  -0.01436  -0.00428  -0.01577   2.02531
   A10        2.20131  -0.00235   0.02880   0.00301   0.02616   2.22747
   A11        2.02607   0.00099  -0.02347  -0.00177  -0.02295   2.00312
   A12        2.05576   0.00135  -0.00536  -0.00149  -0.00407   2.05168
   A13        2.08482   0.01029   0.04337   0.06617   0.10178   2.18660
   A14        2.14700  -0.00497   0.00745  -0.03752  -0.02636   2.12065
   A15        2.05135  -0.00533  -0.05080  -0.02877  -0.07569   1.97566
   A16        2.08769   0.01080   0.04512   0.06918   0.10668   2.19437
   A17        2.14313  -0.00579   0.00508  -0.04258  -0.03421   2.10892
   A18        2.05212  -0.00503  -0.05032  -0.02736  -0.07394   1.97818
   A19        2.05279   0.00236   0.00126   0.03286   0.01394   2.06673
   A20        2.10995  -0.00123  -0.00361  -0.01112  -0.00706   2.10289
   A21        2.11655  -0.00109   0.00043  -0.01108  -0.00298   2.11357
   A22        1.93087   0.00063   0.01240   0.00130   0.01355   1.94442
   A23        1.89952   0.00174  -0.00681   0.01191   0.00510   1.90461
   A24        1.92462   0.00131   0.00858   0.00668   0.01510   1.93973
   A25        1.90403  -0.00142  -0.00405  -0.00848  -0.01253   1.89150
   A26        1.90228  -0.00065  -0.00512  -0.00291  -0.00832   1.89397
   A27        1.90219  -0.00168  -0.00518  -0.00884  -0.01402   1.88817
    D1        0.00605   0.00005   0.00370  -0.00279   0.00116   0.00721
    D2       -3.05462   0.00008   0.03481  -0.04131  -0.01133  -3.06595
    D3        3.06627   0.00001  -0.02769   0.03633   0.01381   3.08008
    D4        0.00560   0.00004   0.00342  -0.00218   0.00132   0.00692
    D5       -0.33510   0.00091  -0.02130   0.03820   0.02363  -0.31147
    D6        2.81742   0.00219  -0.01337   0.06603   0.06007   2.87749
    D7        2.88850   0.00054   0.01046  -0.00381   0.00899   2.89749
    D8       -0.24217   0.00182   0.01840   0.02402   0.04544  -0.19673
    D9        0.33281  -0.00103   0.01994  -0.03773  -0.02447   0.30834
   D10       -2.80364  -0.00141   0.02177  -0.05438  -0.03999  -2.84363
   D11       -2.89035  -0.00068  -0.01157   0.00346  -0.01017  -2.90051
   D12        0.25638  -0.00107  -0.00974  -0.01319  -0.02568   0.23070
   D13        0.23113  -0.00425  -0.05029  -0.02135  -0.07964   0.15149
   D14       -2.91570  -0.00431  -0.04772  -0.05013  -0.10132  -3.01701
   D15       -2.91564  -0.00386  -0.05214  -0.00455  -0.06395  -2.97960
   D16        0.22072  -0.00393  -0.04958  -0.03333  -0.08563   0.13509
   D17       -0.23974   0.00397   0.04498   0.02494   0.07802  -0.16171
   D18        2.92649   0.00499   0.05430   0.06254   0.12070   3.04719
   D19        2.89077   0.00267   0.03695  -0.00330   0.04060   2.93136
   D20       -0.22619   0.00369   0.04627   0.03429   0.08327  -0.14292
   D21       -0.53170  -0.00074  -0.00555  -0.01580  -0.02108  -0.55277
   D22        1.56005  -0.00100  -0.00717  -0.01794  -0.02496   1.53509
   D23       -2.63742  -0.00120  -0.01249  -0.01739  -0.02983  -2.66725
   D24        2.61987   0.00045   0.00174   0.00958   0.01126   2.63113
   D25       -1.57157   0.00019   0.00011   0.00743   0.00738  -1.56418
   D26        0.51415  -0.00001  -0.00521   0.00799   0.00251   0.51666
   D27       -1.13662   0.01386   0.12697   0.14835   0.27554  -0.86107
   D28        1.91137   0.01424   0.09512   0.27541   0.37271   2.28408
   D29        2.00993   0.01392   0.12423   0.17560   0.29556   2.30548
   D30       -1.22527   0.01431   0.09237   0.30267   0.39272  -0.83255
   D31        1.14095  -0.01399  -0.12430  -0.15144  -0.27621   0.86474
   D32       -1.90666  -0.01436  -0.09221  -0.27902  -0.37377  -2.28043
   D33       -2.02401  -0.01498  -0.13284  -0.18740  -0.31579  -2.33979
   D34        1.21157  -0.01536  -0.10076  -0.31498  -0.41335   0.79822
         Item               Value     Threshold  Converged?
 Maximum Force            0.018529     0.000450     NO 
 RMS     Force            0.006412     0.000300     NO 
 Maximum Displacement     0.832543     0.001800     NO 
 RMS     Displacement     0.128429     0.001200     NO 
 Predicted change in Energy=-4.463685D-02
 GradGradGradGradGradGradGradGradGradGradGradGradGradGradGradGradGradGrad

                          Input orientation:                          
 ---------------------------------------------------------------------
 Center     Atomic      Atomic             Coordinates (Angstroms)
 Number     Number       Type             X           Y           Z
 ---------------------------------------------------------------------
      1          6           0       -0.984367    1.049693   -0.312774
      2          6           0        0.320480    1.029466   -0.246747
      3          6           0        1.159918    2.140953    0.081368
      4          6           0       -1.853126    2.177526   -0.082222
      5          6           0        0.841182    3.309338    0.689129
      6          6           0       -1.551374    3.348602    0.566176
      7          6           0       -0.392220    3.600577    1.286902
      8          1           0       -1.478521    0.149652   -0.628889
      9          1           0        0.824953    0.120790   -0.517039
     10          1           0        2.192677    2.016678   -0.190466
     11          1           0        1.554326    4.112260    0.774688
     12          1           0       -2.260789    4.158494    0.602003
     13          1           0       -0.434083    4.015781    2.287293
     14          6           0       -3.275843    1.995063   -0.575369
     15          1           0       -3.311825    1.360109   -1.456849
     16          1           0       -3.870220    1.525290    0.212035
     17          1           0       -3.732408    2.952734   -0.820186
 ---------------------------------------------------------------------
                    Distance matrix (angstroms):
                    1          2          3          4          5
     1  C    0.000000
     2  C    1.306673   0.000000
     3  C    2.438064   1.430986   0.000000
     4  C    1.442186   2.463671   3.017704   0.000000
     5  C    3.072854   2.518891   1.355024   3.022462   0.000000
     6  C    2.525674   3.089187   3.007418   1.372186   2.396035
     7  C    3.068649   3.077440   2.448050   2.456384   1.401225
     8  H    1.074333   2.038752   3.380992   2.133412   4.135433
     9  H    2.044071   1.073891   2.133389   3.404605   3.409097
    10  H    3.323196   2.117281   1.075141   4.050446   2.066687
    11  H    4.123936   3.474094   2.126571   4.011012   1.077302
    12  H    3.482917   4.144170   4.005343   2.135085   3.217278
    13  H    3.982567   3.988585   3.304834   3.317751   2.163213
    14  C    2.492697   3.738169   4.486487   1.516776   4.502906
    15  H    2.611958   3.842826   4.792945   2.164618   5.064799
    16  H    2.971491   4.244795   5.069359   2.140249   5.060410
    17  H    3.380941   4.522576   5.040501   2.162693   4.829381
                    6          7          8          9         10
     6  C    0.000000
     7  C    1.388012   0.000000
     8  H    3.415665   4.093799   0.000000
     9  H    4.151994   4.104221   2.306368   0.000000
    10  H    4.045300   3.372394   4.141944   2.360447   0.000000
    11  H    3.205000   2.076830   5.183671   4.258213   2.393842
    12  H    1.077255   2.066860   4.265894   5.203567   5.004872
    13  H    2.157710   1.083942   4.953981   4.961896   4.127417
    14  C    2.471636   3.789592   2.576582   4.509194   5.482092
    15  H    3.338551   4.590421   2.347707   4.419512   5.686331
    16  H    2.971014   4.190303   2.884399   4.954676   6.096080
    17  H    2.614501   4.002047   3.601926   5.374137   6.031533
                   11         12         13         14         15
    11  H    0.000000
    12  H    3.819301   0.000000
    13  H    2.500210   2.489463   0.000000
    14  C    5.443868   2.664014   4.511511   0.000000
    15  H    6.019429   3.629671   5.417804   1.086954   0.000000
    16  H    6.036115   3.110644   4.724011   1.092692   1.767559
    17  H    5.642489   2.375319   4.654615   1.088816   1.765980
                   16         17
    16  H    0.000000
    17  H    1.766938   0.000000
 Stoichiometry    C8H9(1+)
 Framework group  C1[X(C8H9)]
 Deg. of freedom    45
 Full point group                 C1      NOp   1
 Largest Abelian subgroup         C1      NOp   1
 Largest concise Abelian subgroup C1      NOp   1
                         Standard orientation:                         
 ---------------------------------------------------------------------
 Center     Atomic      Atomic             Coordinates (Angstroms)
 Number     Number       Type             X           Y           Z
 ---------------------------------------------------------------------
      1          6           0        0.507350    1.251840    0.218636
      2          6           0       -0.756353    1.571448    0.127521
      3          6           0       -1.823185    0.680697   -0.213289
      4          6           0        1.099061   -0.043729   -0.007817
      5          6           0       -1.850948   -0.673937   -0.196392
      6          6           0        0.466223   -1.261031   -0.032001
      7          6           0       -0.850703   -1.497380    0.337354
      8          1           0        1.204447    2.042015    0.428086
      9          1           0       -1.026490    2.602343    0.259895
     10          1           0       -2.732283    1.167687   -0.517115
     11          1           0       -2.690017   -1.224739   -0.587747
     12          1           0        1.002399   -2.156865   -0.297471
     13          1           0       -1.105381   -2.300450    1.019371
     14          6           0        2.606061   -0.032883   -0.179408
     15          1           0        2.945791    0.889022   -0.644321
     16          1           0        3.078771   -0.118270    0.802035
     17          1           0        2.937719   -0.870891   -0.790365
 ---------------------------------------------------------------------
 Rotational constants (GHZ):           3.6561211           2.0059218           1.3452286
 Standard basis: 3-21G (6D, 7F)
 There are    90 symmetry adapted cartesian basis functions of A   symmetry.
 There are    90 symmetry adapted basis functions of A   symmetry.
    90 basis functions,   147 primitive gaussians,    90 cartesian basis functions
    28 alpha electrons       28 beta electrons
       nuclear repulsion energy       335.6454787694 Hartrees.
 NAtoms=   17 NActive=   17 NUniq=   17 SFac= 1.00D+00 NAtFMM=   60 NAOKFM=F Big=F
 Integral buffers will be    131072 words long.
 Raffenetti 1 integral format.
 Two-electron integral symmetry is turned on.
 One-electron integrals computed using PRISM.
 NBasis=    90 RedAO= T EigKep=  3.40D-03  NBF=    90
 NBsUse=    90 1.00D-06 EigRej= -1.00D+00 NBFU=    90
 Initial guess from the checkpoint file:  "cation.chk"
 B after Tr=    -0.000000    0.000000    0.000000
         Rot=    0.999881   -0.007119    0.000682    0.013675 Ang=  -1.77 deg.
 ExpMin= 1.83D-01 ExpMax= 1.72D+02 ExpMxC= 1.72D+02 IAcc=3 IRadAn=         5 AccDes= 0.00D+00
 Harris functional with IExCor=  205 and IRadAn=       5 diagonalized for initial guess.
 HarFok:  IExCor=  205 AccDes= 0.00D+00 IRadAn=         5 IDoV= 1 UseB2=F ITyADJ=14
 ICtDFT=  3500011 ScaDFX=  1.000000  1.000000  1.000000  1.000000
 FoFCou: FMM=F IPFlag=           0 FMFlag=      100000 FMFlg1=           0
         NFxFlg=           0 DoJE=T BraDBF=F KetDBF=T FulRan=T
         wScrn=  0.000000 ICntrl=       500 IOpCl=  0 I1Cent=   200000004 NGrid=           0
         NMat0=    1 NMatS0=      1 NMatT0=    0 NMatD0=    1 NMtDS0=    0 NMtDT0=    0
 Petite list used in FoFCou.
 Keep R1 ints in memory in canonical form, NReq=9231279.
 Requested convergence on RMS density matrix=1.00D-08 within 128 cycles.
 Requested convergence on MAX density matrix=1.00D-06.
 Requested convergence on             energy=1.00D-06.
 No special actions if energy rises.
 SCF Done:  E(RHF) =  -306.163788835     A.U. after   17 cycles
            NFock= 17  Conv=0.39D-08     -V/T= 2.0015
 Calling FoFJK, ICntrl=      2127 FMM=F ISym2X=0 I1Cent= 0 IOpClX= 0 NMat=1 NMatS=1 NMatT=0.
 ***** Axes restored to original set *****
 -------------------------------------------------------------------
 Center     Atomic                   Forces (Hartrees/Bohr)
 Number     Number              X              Y              Z
 -------------------------------------------------------------------
      1        6          -0.068018844    0.012040174    0.005996429
      2        6           0.064262832    0.011760008    0.012537484
      3        6           0.006011368   -0.008533538   -0.018063020
      4        6           0.002316475   -0.011449877   -0.021140713
      5        6           0.003957538   -0.000118586    0.011435704
      6        6          -0.003671647    0.001133889    0.011459300
      7        6          -0.000423776   -0.012844305   -0.004855726
      8        1          -0.001519430    0.002377619   -0.001073260
      9        1           0.001540924    0.002078067   -0.000606992
     10        1          -0.000587852    0.001270790    0.000031735
     11        1           0.010504452   -0.011471262    0.010289006
     12        1          -0.012463801   -0.011855405    0.009670153
     13        1           0.000811253    0.023649186   -0.016601385
     14        6          -0.006937498    0.001853496   -0.001099965
     15        1           0.000518374    0.002507733    0.003771936
     16        1           0.001888356    0.001764225   -0.003680503
     17        1           0.001811276   -0.004162214    0.001929816
 -------------------------------------------------------------------
 Cartesian Forces:  Max     0.068018844 RMS     0.015618981

 GradGradGradGradGradGradGradGradGradGradGradGradGradGradGradGradGradGrad
 Berny optimization.
 Using GEDIIS/GDIIS optimizer.
 FormGI is forming the generalized inverse of G from B-inverse, IUseBI=4.
 Internal  Forces:  Max     0.066139567 RMS     0.009916732
 Search for a local minimum.
 Step number   3 out of a maximum of   88
 All quantities printed in internal units (Hartrees-Bohrs-Radians)
 Mixed Optimization -- RFO/linear search
 Update second derivatives using D2CorX and points    2    3
 DE= -4.02D-02 DEPred=-4.46D-02 R= 9.01D-01
 TightC=F SS=  1.41D+00  RLast= 1.04D+00 DXNew= 8.4853D-01 3.1209D+00
 Trust test= 9.01D-01 RLast= 1.04D+00 DXMaxT set to 8.49D-01
 ITU=  1  1  0
 Use linear search instead of GDIIS.
     Eigenvalues ---    0.00237   0.01051   0.01357   0.01521   0.01720
     Eigenvalues ---    0.01739   0.01792   0.01923   0.02152   0.02353
     Eigenvalues ---    0.02458   0.02555   0.06877   0.07163   0.15566
     Eigenvalues ---    0.15964   0.15981   0.15998   0.15999   0.16000
     Eigenvalues ---    0.16000   0.16108   0.16572   0.20101   0.20169
     Eigenvalues ---    0.22330   0.23546   0.25047   0.27660   0.28654
     Eigenvalues ---    0.32559   0.37180   0.37230   0.37230   0.37230
     Eigenvalues ---    0.37230   0.37230   0.37230   0.37244   0.37302
     Eigenvalues ---    0.38296   0.38900   0.53899   0.56552   0.83372
 RFO step:  Lambda=-2.67015456D-02 EMin= 2.36888534D-03
 Quartic linear search produced a step of  0.59657.
 Iteration  1 RMS(Cart)=  0.08371549 RMS(Int)=  0.03710315
 Iteration  2 RMS(Cart)=  0.03996233 RMS(Int)=  0.00529479
 Iteration  3 RMS(Cart)=  0.00152776 RMS(Int)=  0.00513786
 Iteration  4 RMS(Cart)=  0.00000200 RMS(Int)=  0.00513786
 Iteration  5 RMS(Cart)=  0.00000001 RMS(Int)=  0.00513786
 Variable       Old X    -DE/DX   Delta X   Delta X   Delta X     New X
                                 (Linear)    (Quad)   (Total)
    R1        2.46925   0.06614  -0.03259   0.09667   0.06893   2.53818
    R2        2.72534  -0.01523  -0.00453  -0.02705  -0.02864   2.69670
    R3        2.03019  -0.00098   0.00230  -0.00169   0.00061   2.03081
    R4        2.70417  -0.01201  -0.01017  -0.02086  -0.02813   2.67604
    R5        2.02936  -0.00088   0.00193  -0.00127   0.00066   2.03002
    R6        2.56062   0.00061   0.00773   0.00563   0.01230   2.57293
    R7        2.03172  -0.00072   0.00335  -0.00188   0.00146   2.03318
    R8        2.59306   0.00146   0.01866   0.00850   0.02597   2.61903
    R9        2.86629   0.00202  -0.01231   0.00142  -0.01089   2.85540
   R10        2.64793   0.01360  -0.05427   0.03042  -0.02811   2.61982
   R11        2.03580  -0.00078   0.00416  -0.00079   0.00337   2.03918
   R12        2.62296   0.01247  -0.06518   0.03059  -0.03885   2.58411
   R13        2.03572  -0.00038   0.00450  -0.00032   0.00418   2.03990
   R14        2.04835  -0.00629   0.00585  -0.01187  -0.00602   2.04234
   R15        2.05405  -0.00454   0.00748  -0.00579   0.00170   2.05574
   R16        2.06489  -0.00444   0.01153  -0.00578   0.00576   2.07064
   R17        2.05756  -0.00485   0.00872  -0.00667   0.00205   2.05961
    A1        2.22129   0.00394  -0.01055   0.01928   0.00789   2.22918
    A2        2.05017   0.00060   0.02227  -0.01427   0.00856   2.05873
    A3        2.00989  -0.00442  -0.01126  -0.00593  -0.01684   1.99305
    A4        2.19612   0.00650  -0.01659   0.02816   0.01073   2.20684
    A5        2.05950  -0.00087   0.02340  -0.01833   0.00561   2.06512
    A6        2.02570  -0.00552  -0.00636  -0.01081  -0.01678   2.00891
    A7        2.25829  -0.01011   0.02410  -0.01652  -0.00149   2.25680
    A8        1.99955   0.00607  -0.01471   0.01129   0.00094   2.00049
    A9        2.02531   0.00403  -0.00941   0.00513   0.00022   2.02553
   A10        2.22747  -0.00970   0.01561  -0.01775  -0.01109   2.21638
   A11        2.00312   0.00836  -0.01369   0.01824   0.00847   2.01159
   A12        2.05168   0.00129  -0.00243  -0.00091   0.00096   2.05265
   A13        2.18660   0.00083   0.06072   0.00550   0.04940   2.23599
   A14        2.12065  -0.00889  -0.01572  -0.03755  -0.04492   2.07573
   A15        1.97566   0.00807  -0.04515   0.03234  -0.00440   1.97126
   A16        2.19437   0.00258   0.06364   0.01300   0.06011   2.25448
   A17        2.10892  -0.01018  -0.02041  -0.04293  -0.05524   2.05367
   A18        1.97818   0.00760  -0.04411   0.03053  -0.00537   1.97281
   A19        2.06673   0.01738   0.00831   0.09829   0.08315   2.14987
   A20        2.10289  -0.00827  -0.00421  -0.04753  -0.04127   2.06162
   A21        2.11357  -0.00912  -0.00178  -0.05057  -0.04187   2.07169
   A22        1.94442  -0.00063   0.00808   0.00264   0.01061   1.95503
   A23        1.90461   0.00103   0.00304  -0.00383  -0.00080   1.90381
   A24        1.93973  -0.00014   0.00901   0.00066   0.00957   1.94929
   A25        1.89150  -0.00028  -0.00747   0.00031  -0.00718   1.88432
   A26        1.89397   0.00056  -0.00496   0.00200  -0.00314   1.89082
   A27        1.88817  -0.00055  -0.00836  -0.00189  -0.01026   1.87791
    D1        0.00721  -0.00022   0.00069  -0.00075   0.00034   0.00756
    D2       -3.06595  -0.00209  -0.00676   0.01772   0.00873  -3.05722
    D3        3.08008   0.00177   0.00824  -0.01820  -0.00721   3.07288
    D4        0.00692  -0.00010   0.00079   0.00026   0.00118   0.00810
    D5       -0.31147   0.00369   0.01410   0.01621   0.03414  -0.27733
    D6        2.87749   0.00508   0.03584   0.02672   0.06614   2.94363
    D7        2.89749   0.00157   0.00536   0.03363   0.04063   2.93812
    D8       -0.19673   0.00296   0.02711   0.04414   0.07263  -0.12411
    D9        0.30834  -0.00363  -0.01460  -0.01511  -0.03323   0.27511
   D10       -2.84363  -0.00465  -0.02386  -0.02596  -0.05348  -2.89712
   D11       -2.90051  -0.00164  -0.00607  -0.03356  -0.04064  -2.94116
   D12        0.23070  -0.00266  -0.01532  -0.04441  -0.06090   0.16980
   D13        0.15149  -0.00545  -0.04751  -0.07521  -0.12638   0.02511
   D14       -3.01701  -0.00487  -0.06044  -0.06073  -0.12254  -3.13955
   D15       -2.97960  -0.00443  -0.03815  -0.06426  -0.10589  -3.08549
   D16        0.13509  -0.00385  -0.05108  -0.04978  -0.10205   0.03304
   D17       -0.16171   0.00583   0.04655   0.07654   0.12650  -0.03522
   D18        3.04719   0.00572   0.07200   0.06360   0.13644  -3.09956
   D19        2.93136   0.00456   0.02422   0.06621   0.09400   3.02537
   D20       -0.14292   0.00445   0.04968   0.05327   0.10394  -0.03897
   D21       -0.55277  -0.00100  -0.01257  -0.00839  -0.02089  -0.57366
   D22        1.53509  -0.00107  -0.01489  -0.00885  -0.02372   1.51137
   D23       -2.66725  -0.00119  -0.01779  -0.01321  -0.03106  -2.69831
   D24        2.63113   0.00059   0.00672   0.00156   0.00833   2.63946
   D25       -1.56418   0.00051   0.00440   0.00110   0.00549  -1.55870
   D26        0.51666   0.00040   0.00150  -0.00327  -0.00185   0.51481
   D27       -0.86107   0.00965   0.16438   0.15417   0.32006  -0.54102
   D28        2.28408   0.01268   0.22235   0.09435   0.31760   2.60167
   D29        2.30548   0.00933   0.17632   0.14166   0.31702   2.62250
   D30       -0.83255   0.01237   0.23429   0.08184   0.31456  -0.51799
   D31        0.86474  -0.00898  -0.16478  -0.15196  -0.31883   0.54592
   D32       -2.28043  -0.01204  -0.22298  -0.09175  -0.31635  -2.59678
   D33       -2.33979  -0.00946  -0.18839  -0.14231  -0.33023  -2.67002
   D34        0.79822  -0.01252  -0.24659  -0.08210  -0.32775   0.47047
         Item               Value     Threshold  Converged?
 Maximum Force            0.066140     0.000450     NO 
 RMS     Force            0.009917     0.000300     NO 
 Maximum Displacement     0.582135     0.001800     NO 
 RMS     Displacement     0.121023     0.001200     NO 
 Predicted change in Energy=-3.320599D-02
 GradGradGradGradGradGradGradGradGradGradGradGradGradGradGradGradGradGrad

                          Input orientation:                          
 ---------------------------------------------------------------------
 Center     Atomic      Atomic             Coordinates (Angstroms)
 Number     Number       Type             X           Y           Z
 ---------------------------------------------------------------------
      1          6           0       -0.995362    1.065335   -0.368955
      2          6           0        0.344242    1.036287   -0.275856
      3          6           0        1.183798    2.107926    0.114116
      4          6           0       -1.864971    2.166526   -0.108989
      5          6           0        0.861155    3.271340    0.743519
      6          6           0       -1.554475    3.330589    0.576104
      7          6           0       -0.384567    3.686838    1.187929
      8          1           0       -1.493584    0.189172   -0.741780
      9          1           0        0.857343    0.144325   -0.584283
     10          1           0        2.227858    1.960029   -0.099560
     11          1           0        1.643984    3.981230    0.961834
     12          1           0       -2.343606    4.052858    0.720498
     13          1           0       -0.427941    4.323834    2.059933
     14          6           0       -3.296223    1.976965   -0.554799
     15          1           0       -3.366290    1.366158   -1.452255
     16          1           0       -3.855648    1.473193    0.241379
     17          1           0       -3.786953    2.930405   -0.749782
 ---------------------------------------------------------------------
                    Distance matrix (angstroms):
                    1          2          3          4          5
     1  C    0.000000
     2  C    1.343149   0.000000
     3  C    2.463552   1.416101   0.000000
     4  C    1.427033   2.487148   3.057482   0.000000
     5  C    3.090422   2.510336   1.361535   3.062539   0.000000
     6  C    2.517363   3.097544   3.034217   1.385930   2.422149
     7  C    3.109539   3.114362   2.470993   2.486954   1.386348
     8  H    1.074656   2.076606   3.403314   2.109095   4.153393
     9  H    2.080178   1.074243   2.109518   3.424353   3.397249
    10  H    3.355919   2.105324   1.075915   4.098045   2.073209
    11  H    4.152058   3.448752   2.107051   4.092991   1.079086
    12  H    3.453977   4.161363   4.073454   2.115511   3.298756
    13  H    4.103569   4.106110   3.360678   3.379831   2.121900
    14  C    2.481847   3.770367   4.531576   1.511013   4.543658
    15  H    2.623992   3.906504   4.868987   2.167697   5.130539
    16  H    2.952980   4.254114   5.080855   2.136882   5.072840
    17  H    3.378830   4.569360   5.111864   2.165212   4.893985
                    6          7          8          9         10
     6  C    0.000000
     7  C    1.367453   0.000000
     8  H    3.407202   4.145765   0.000000
     9  H    4.161207   4.151202   2.356624   0.000000
    10  H    4.079338   3.385892   4.171032   2.325951   0.000000
    11  H    3.286680   2.062233   5.208295   4.210834   2.356421
    12  H    1.079467   2.047021   4.217684   5.217773   5.094184
    13  H    2.111247   1.080757   5.106919   5.110003   4.159838
    14  C    2.478896   3.799803   2.545717   4.539994   5.542833
    15  H    3.354981   4.609425   2.323166   4.481666   5.785927
    16  H    2.976131   4.224285   2.862631   4.965872   6.112470
    17  H    2.627180   3.987875   3.574068   5.418406   6.127182
                   11         12         13         14         15
    11  H    0.000000
    12  H    3.995528   0.000000
    13  H    2.369826   2.353144   0.000000
    14  C    5.542824   2.615949   4.535599   0.000000
    15  H    6.145671   3.603483   5.451349   1.087852   0.000000
    16  H    6.087303   3.028283   4.814817   1.095738   1.766160
    17  H    5.790418   2.346246   4.595552   1.089900   1.765586
                   16         17
    16  H    0.000000
    17  H    1.763685   0.000000
 Stoichiometry    C8H9(1+)
 Framework group  C1[X(C8H9)]
 Deg. of freedom    45
 Full point group                 C1      NOp   1
 Largest Abelian subgroup         C1      NOp   1
 Largest concise Abelian subgroup C1      NOp   1
                         Standard orientation:                         
 ---------------------------------------------------------------------
 Center     Atomic      Atomic             Coordinates (Angstroms)
 Number     Number       Type             X           Y           Z
 ---------------------------------------------------------------------
      1          6           0        0.524504    1.256272    0.172740
      2          6           0       -0.778072    1.576809    0.104924
      3          6           0       -1.849406    0.690956   -0.164982
      4          6           0        1.118852   -0.027169   -0.016870
      5          6           0       -1.873412   -0.669875   -0.128367
      6          6           0        0.474206   -1.254024   -0.008930
      7          6           0       -0.845452   -1.534926    0.213610
      8          1           0        1.231771    2.051220    0.323465
      9          1           0       -1.053874    2.611005    0.196413
     10          1           0       -2.779737    1.173636   -0.408084
     11          1           0       -2.791839   -1.182440   -0.369604
     12          1           0        1.079978   -2.139323   -0.129490
     13          1           0       -1.104704   -2.476058    0.677393
     14          6           0        2.624685   -0.028182   -0.141887
     15          1           0        2.994242    0.872930   -0.626497
     16          1           0        3.067187   -0.079241    0.859225
     17          1           0        2.981544   -0.890897   -0.704253
 ---------------------------------------------------------------------
 Rotational constants (GHZ):           3.6701474           1.9809714           1.3158685
 Standard basis: 3-21G (6D, 7F)
 There are    90 symmetry adapted cartesian basis functions of A   symmetry.
 There are    90 symmetry adapted basis functions of A   symmetry.
    90 basis functions,   147 primitive gaussians,    90 cartesian basis functions
    28 alpha electrons       28 beta electrons
       nuclear repulsion energy       334.6276242603 Hartrees.
 NAtoms=   17 NActive=   17 NUniq=   17 SFac= 1.00D+00 NAtFMM=   60 NAOKFM=F Big=F
 Integral buffers will be    131072 words long.
 Raffenetti 1 integral format.
 Two-electron integral symmetry is turned on.
 One-electron integrals computed using PRISM.
 NBasis=    90 RedAO= T EigKep=  3.59D-03  NBF=    90
 NBsUse=    90 1.00D-06 EigRej= -1.00D+00 NBFU=    90
 Initial guess from the checkpoint file:  "cation.chk"
[...]
 ,-2.5154514,-1.1925976,-0.0829167,-3.2183306,0.2176283,0.1640969,1.193
 7015,0.7818418,0.7167249,-2.2530873,1.3709101,0.9269037,-2.6557084,-0.
 365887,-1.5846933,0.9249434,2.2328783,1.4348063,0.8997727,0.7871572,0.
 0813211,2.2482864,-0.3583138,2.2600759,-1.0956298,-0.0917395,-1.101520
 1,0.5088081,-1.4734171,-1.0933822,1.8956229,1.7212586,2.6359515,2.8987
 114,0.8366288,-2.4609773,1.1923432,-1.3615921,-0.6364381,6.1615507,0.5
 344796,-0.1043635,2.368738,-0.8552113,-0.5141678,4.2017517,1.282796,-2
 .3059885,-1.1183698,0.9801217,0.8458181,-3.1345215,-2.9453785,1.742294
 4,-1.9759702,-0.0085121,-0.4082352,1.1935462,0.3946314,2.1888223,0.247
 6799,-0.0720816,-0.9468912,0.0413207,-0.7944409,-1.3454553,-0.0464722,
 1.9770176,2.2612038,-1.4444252,-1.7044803,-1.6350042,-0.9587805,-0.800
 2055,-0.6210858,-1.1701605,-1.9750853,-5.6554764,-0.8507533,-2.3463953
 ,-1.3001804,-0.6465384,-0.8045946,-1.8792931,-0.976375,-2.1345878,-2.0
 591909,2.2077802,-2.4185918,2.2084561,-1.0122827,0.8436408,0.5442564,-
 1.6313804,3.0405359,-6.5817787,0.974274,-1.9608979,-0.9629901,-0.69815
 74,0.9938494,-1.6240648,1.1373477,-1.9080208,-1.5142597,10.2026402,-2.
 0489303,0.7940327,0.1810291,-0.1027098,0.4561843,-1.9296133,1.9300575,
 -0.9401696,-0.0534669,0.0314551,-0.1465043,0.0903168,-0.0428694,-0.039
 8725,1.496385,-0.3450757,0.122428,6.0876319,3.0941776,1.8093775,2.1940
 923,1.0539608,1.1468939,2.6042439,2.7578344,2.8195556,1.0976107,1.3031
 709,0.7959261,1.8246643,1.0984187,0.9220079,2.0283197,1.2768874,1.6758
 987,-4.772577,2.832198,-2.0689892,0.9060624,-0.579271,-0.5396582,2.420
 2156,-2.7431152,3.4480165,-0.5483959,0.7088903,0.4220483,0.7988549,-0.
 5774463,0.5028384,-1.2015122,1.0274965,0.74042,0.0738113,1.2671813,-0.
 0198395,0.6393324,-0.0198304,-0.0471047,0.2285438,0.3204692,8.1248638,
 0.1086278,3.156139,1.6800004,0.11217,0.1184095,2.6203754,0.0808808,2.6
 353159,2.254588,4.083208,1.0387499,1.5993638,0.2809506,0.1411882,0.244
 6821,3.5879642,5.3483154,1.5266224,0.2442532,-1.7121526,1.1373655,0.76
 93143,-0.2210893,-2.4913104,4.6891248,1.5780681,5.4776476,-2.1211382,-
 0.3353127,-0.4146046,-2.8096363,-0.2373428,-0.6191893,-1.4893431,-1.95
 30612,-0.8057087,-0.467465,-1.8379674,-0.350424,-3.5962099,-0.519002,-
 0.0636102,-4.0595091,-0.920788,-8.3720516,-4.3232658,-2.8911795,-1.222
 8715,1.4115349,0.1019072,-0.0832593,-4.5973166,-4.1316228,-5.1918088,0
 .1812397,1.5933251,-0.8533908,1.723805,0.9886436,1.4962969,-2.318937,-
 2.3658593,1.2238529,-5.2090785,2.5026673,-0.8964554,0.812419,0.0162483
 ,-0.2797003,2.7665924,-2.6129708,2.8868153,0.2418421,0.7036905,0.16479
 93,1.2371704,0.0595046,0.4872312,-1.9370333,1.1140448,0.1547673\HyperP
 olar=124.2863339,33.3880563,-15.639891,-11.7816198,39.7837071,8.791969
 6,8.9174335,-6.4039051,-6.5540043,-26.2883745\Quadrupole=6.8396028,0.9
 153912,-7.754994,-0.134779,2.555174,5.9476595\PG=C01 [X(C8H9)]\NImag=0
 \\0.78163038,-0.01473533,0.64407965,0.07972464,0.22422916,0.31187115,-
 0.36574663,-0.03243771,-0.05716249,0.77277441,0.05802252,-0.15293119,-
 0.02467979,-0.04303787,0.66037005,-0.01215840,-0.03796939,-0.10678835,
 0.06370073,0.22634299,0.31418675,-0.03170995,-0.02698552,-0.01927376,-
 0.23061303,-0.10860971,-0.07464174,0.77381164,-0.05938189,0.04560469,0
 .00982260,-0.02034554,-0.22553275,-0.07053716,-0.05138801,0.66671190,-
 0.03540857,0.01460044,0.01037272,-0.03074631,-0.08349685,-0.13554828,0
 .05969807,0.22904991,0.31375644,-0.21127024,0.11266890,0.03819681,-0.0
 4356871,0.02722487,0.00615551,0.00106119,0.00865540,0.00529149,0.62076
 354,0.03961755,-0.23256773,-0.06500253,0.05218104,0.03314977,0.0208492
 1,0.00474299,-0.01830969,-0.00559737,-0.04171978,0.64457722,0.00182425
 ,-0.05421743,-0.11675533,0.01866453,0.01718309,0.01791559,0.00332167,-
 0.00509262,-0.00771354,0.03703338,0.20155572,0.33254610,-0.02300470,0.
 01782482,0.00613241,0.06681315,-0.01281656,0.00222489,-0.17855861,0.00
 233829,-0.01210852,0.00222401,0.00739498,0.00472958,0.75913748,0.01437
 864,-0.01456414,-0.00293956,-0.04406107,-0.03767380,-0.02931291,0.0895
 9973,-0.31376499,-0.09929053,0.00228173,-0.02242438,-0.00808888,-0.021
 49837,0.67572844,0.00442695,-0.00243708,-0.00497738,-0.01332161,-0.024
 70413,-0.00600613,0.03127870,-0.11209056,-0.13902469,0.00224840,-0.007
 40799,-0.00869101,0.07279360,0.23863565,0.31919201,0.05368750,0.013503
 28,0.01337781,-0.01183800,-0.01187328,-0.00702785,-0.00773220,-0.00948
 402,-0.00517602,-0.16279049,0.01595510,-0.00284413,-0.05515095,0.01883
 069,0.00001037,0.78375944,0.02406683,-0.03688258,-0.01898684,0.0009033
 6,-0.00662353,-0.00110941,-0.01322210,-0.02355311,-0.01137745,-0.06217
 610,-0.26887066,-0.09838768,-0.01390556,0.06052059,0.02379230,-0.04051
 566,0.64536315,0.01862801,-0.02054699,0.00095666,-0.00069177,-0.002991
 24,-0.00570848,-0.00704587,-0.01084647,-0.01098137,-0.04167082,-0.0868
 2266,-0.13899027,-0.01628054,0.02861102,0.02043561,0.06756259,0.222128
 71,0.30723659,-0.01504576,-0.00324286,-0.00320537,-0.03254137,-0.00288
 029,-0.00535144,0.02016050,0.07309102,0.03810748,0.00926472,-0.0696136
 7,-0.03404549,-0.30543323,0.02486882,-0.01927917,-0.32258806,-0.007239
 82,-0.03818695,0.76127805,0.00884338,-0.00386666,0.00152722,-0.0066050
 3,-0.00345293,0.00023816,0.04173191,-0.01053929,-0.00315610,-0.0418339
 8,0.00114200,-0.00846678,0.11358102,-0.18228062,-0.02949954,-0.0979569
 8,-0.17347641,-0.05739210,-0.02787015,0.66562953,0.00283034,-0.0002468
 1,-0.00403642,-0.00720491,0.00078216,-0.00654463,0.02253673,0.00145642
 ,0.01210654,-0.02031678,-0.01257604,-0.00334868,0.02483457,-0.04250592
 ,-0.10700425,-0.08331543,-0.04406280,-0.12121734,0.06944747,0.23067283
 ,0.31864544,-0.12236017,-0.09702365,-0.05719783,-0.01698818,-0.0316666
 6,-0.01996448,-0.00528352,0.00228176,-0.00101727,0.01158372,0.02386462
 ,0.01193367,-0.00030992,0.00062950,0.00022212,-0.00349660,0.00357638,0
 .00012391,-0.00001040,0.00002929,-0.00010271,0.13681300,-0.09713922,-0
 .25841004,-0.11221506,0.00514030,0.00714881,-0.00153688,0.00140238,0.0
 0220468,-0.00335455,-0.01084882,-0.01953129,-0.01679181,-0.00020997,0.
 00070220,0.00016607,0.00366480,-0.00061202,-0.00362996,0.00109600,0.00
 027591,-0.00009259,0.09768972,0.26900531,-0.05727190,-0.11221895,-0.12
 560583,-0.00164488,-0.00693896,0.00806832,-0.00145306,-0.00322873,0.00
 754127,-0.00532907,-0.01171036,0.00442714,-0.00019686,0.00028886,0.000
 42213,0.00016814,-0.00363186,0.00599046,0.00042181,-0.00024876,0.00072
 328,0.06352771,0.13064010,0.10940251,-0.01700719,0.03432687,0.01281531
 ,-0.13010174,0.10990617,0.04465080,0.01275589,-0.02418670,-0.01185219,
 -0.00551376,-0.00058690,-0.00250657,-0.00275021,-0.00229773,-0.0027177
 3,-0.00017137,-0.00041433,-0.00026422,-0.00031126,-0.00001857,-0.00011
 459,0.00027916,0.00027337,0.00106440,0.14195240,-0.00206875,0.00461630
 ,-0.00396179,0.11029652,-0.28044218,-0.09243996,0.01210036,-0.01656933
 ,-0.01222828,-0.00007112,0.00244254,-0.00358212,-0.00273717,0.00010624
 ,-0.00432160,0.00028676,0.00070385,0.00027903,-0.00098406,0.00041201,-
 0.00014179,-0.00106219,0.00028244,0.00299666,-0.11565378,0.29035025,-0
 .00529857,0.00137537,0.01187840,0.04486943,-0.09249835,-0.10136574,0.0
 0617714,-0.01756016,0.00376969,-0.00225336,-0.00365878,0.00747872,-0.0
 0294019,-0.00424844,0.00545198,0.00007886,0.00016938,0.00032424,-0.000
 58194,-0.00000036,0.00032197,0.00040534,0.00319413,-0.00441082,-0.0419
 3542,0.10957931,0.08414592,-0.00039609,-0.00231952,-0.00235813,-0.0187
 4631,0.00737077,-0.00072931,-0.35795858,0.07616444,-0.00546888,0.00048
 426,-0.00092625,-0.00046347,-0.00289446,0.00003169,-0.00215864,0.00076
 042,0.00044313,0.00029936,0.00089102,0.00107294,-0.00071728,-0.0008445
 5,0.00008091,0.00012855,0.00109608,-0.00034231,0.00072232,0.37653420,-
 0.00171841,-0.00165705,-0.00498108,-0.02900333,0.00991951,-0.00492173,
 0.07598854,-0.09123735,-0.00362717,0.00024371,-0.00011686,-0.00027526,
 0.03635591,-0.00578522,-0.00350548,-0.00044631,-0.00031568,-0.00033495
 ,0.00059636,-0.00302603,-0.00611956,-0.00107093,-0.00029055,0.00042147
 ,-0.00132101,-0.00014036,0.00222859,-0.08080329,0.09425082,-0.00205961
 ,-0.00506907,0.00503308,-0.01882472,0.00039868,0.00872335,-0.00555295,
 -0.00360140,-0.06419957,0.00011537,-0.00044114,0.00030357,0.01590445,-
 0.00881949,0.00990350,-0.00014839,-0.00020765,0.00010022,-0.00095440,-
 0.00605032,0.00630101,-0.00044248,0.00059060,-0.00122729,0.00023845,0.
 00237030,-0.00379618,0.00966786,0.01729826,0.04572471,0.00050586,-0.00
 004408,0.00001837,-0.00013911,0.00253577,-0.00014135,0.01162181,0.0094
 5280,0.00469526,-0.00001319,0.00111320,0.00046651,-0.25115896,-0.12183
 040,-0.08847726,-0.00325500,0.00384910,0.00026427,-0.02476139,-0.01829
 374,-0.01435360,0.00006009,-0.00012402,0.00007846,0.00013963,0.0002731
 9,0.00036996,0.00143023,0.00025876,0.00120987,0.26606087,0.00084081,-0
 .00017803,-0.00008121,0.00305469,-0.00235066,-0.00540834,-0.02693786,-
 0.01476118,-0.01710107,-0.00004745,0.00013252,-0.00022794,-0.12170552,
 -0.15541903,-0.06472714,0.00314316,0.00014285,-0.00344903,0.01819554,0
 .01335657,0.00381173,-0.00012563,-0.00013889,0.00035729,-0.00094420,-0
 .00107488,0.00005548,-0.00070330,-0.00067932,0.00251278,0.12407118,0.1
 6094040,0.00046294,-0.00021361,0.00019506,0.00011684,-0.00548601,0.006
 70444,-0.01341055,-0.01175085,0.00385853,-0.00011216,-0.00005597,0.000
 53425,-0.08841325,-0.06475874,-0.10640673,-0.00008661,-0.00334472,0.00
 632378,0.00379675,-0.00153206,0.01084932,0.00007811,0.00035743,-0.0007
 0445,-0.00023613,0.00023124,-0.00138027,0.00072746,0.00265278,-0.00450
 917,0.09551426,0.08049103,0.08980896,-0.00055717,-0.00179525,-0.002112
 56,0.00051804,0.00018734,0.00005510,0.00007482,-0.00094694,-0.00050731
 ,0.00885354,-0.00755898,-0.00413516,-0.00314492,-0.00246221,-0.0030443
 8,-0.25153367,0.14451829,0.04381928,-0.02610715,0.02175136,0.00531095,
 0.00043394,-0.00045800,0.00009303,0.00001175,0.00002030,0.00011477,-0.
 00001144,0.00000182,0.00013238,-0.00109584,0.00055558,0.00031669,0.271
 40997,-0.00188407,-0.00238440,-0.00531770,-0.00088793,-0.00001810,-0.0
 0052367,-0.00008522,0.00040231,0.00002580,0.02642131,-0.01828920,-0.01
 085247,-0.00164996,0.00096123,-0.00434320,0.14344151,-0.18274765,-0.03
 963988,-0.01485257,0.01251771,-0.00162180,0.00088403,-0.00121245,0.000
 38948,0.00001845,-0.00011640,0.00029511,0.00000305,-0.00009786,0.00040
 039,-0.00059031,-0.00011959,0.00053515,-0.14920729,0.19090801,-0.00215
 368,-0.00531499,0.00479347,-0.00048262,-0.00036768,0.00051889,-0.00008
 033,-0.00009995,0.00026311,0.01275830,-0.01583457,0.00532844,-0.002635
 37,-0.00446163,0.00660089,0.04326560,-0.03946976,-0.07393555,-0.012888
 60,0.00375888,0.01136376,0.00076108,0.00019030,-0.00152410,0.00011408,
 0.00029548,-0.00054083,0.00013193,0.00040048,-0.00068364,-0.00025435,0
 .00070373,-0.00105615,-0.03944004,0.05563476,0.05683497,-0.00007341,0.
 00010552,0.00000955,-0.00061658,-0.00030698,-0.00030419,-0.00543456,0.
 00223124,-0.00087808,-0.00537764,-0.00067478,-0.00252440,0.00012636,0.
 03559900,0.01597425,0.00035167,-0.03398440,-0.01863976,-0.07295539,0.0
 0424654,0.00054692,0.00007599,-0.00007844,0.00007682,0.00008600,-0.000
 02212,0.00010021,-0.00031581,0.00110212,0.00072867,0.00062026,0.000539
 96,0.00110830,0.00047130,-0.00154989,0.00017121,0.08300767,-0.00062896
 ,0.00064248,0.00011682,0.00064791,0.00062870,0.00020317,0.00264185,0.0
 0169335,-0.00281288,-0.00091638,0.00228813,-0.00375181,-0.00066199,-0.
 00880975,-0.01041463,0.00230707,-0.00571754,-0.00855301,0.00398737,-0.
 31476848,-0.12498237,-0.00008310,-0.00015528,0.00026493,-0.00001369,-0
 .00014771,0.00025850,-0.00011190,-0.00081983,0.00034240,-0.00046508,0.
 00013009,0.00253616,-0.00021688,0.00014793,0.00299908,-0.00635696,0.32
 561818,-0.00036084,0.00022681,0.00028144,0.00017443,0.00006368,0.00046
 889,-0.00067537,-0.00287475,0.00659980,-0.00265013,-0.00371834,0.00732
 711,-0.00205320,-0.00510199,0.00909898,-0.00059775,-0.01388506,0.00516
 905,0.00041790,-0.12492725,-0.12437299,0.00007413,0.00026579,-0.000570
 02,0.00010430,0.00025720,-0.00052851,0.00012349,0.00052103,-0.00126431
 ,0.00060840,0.00268534,-0.00368289,0.00083892,0.00280327,-0.00442918,0
 .00377475,0.14323090,0.10754801,-0.03884912,0.00366671,-0.00513383,0.0
 0527795,0.00250668,0.00114812,-0.00122266,-0.00332244,-0.00198686,-0.1
 7738246,-0.01275864,-0.01839083,-0.00267192,0.00187988,0.00054147,-0.0
 1103313,-0.00761037,-0.00780612,0.00302504,0.00312155,0.00054592,0.000
 42232,-0.00195136,-0.00047521,-0.00012045,-0.00013735,0.00016247,-0.00
 002362,-0.00011309,0.00000571,-0.00001922,-0.00000566,0.00013367,0.000
 87431,0.00187056,0.00194493,0.00035605,0.00009205,0.00042278,0.5206899
 5,0.02560322,0.00991419,0.00418897,0.00902823,-0.00169306,-0.00256132,
 -0.00188537,-0.00553772,-0.00355130,-0.00263336,-0.10297482,-0.0040016
 7,-0.00448438,0.00489612,0.00173408,-0.03772525,-0.00862285,-0.0178551
 9,0.00789841,-0.00162109,-0.00443574,0.00172390,0.00048308,0.00201161,
 0.00113755,-0.00044311,0.00081843,0.00004950,-0.00003935,0.00022088,-0
 .00014786,-0.00001503,0.00042690,-0.00298880,-0.00102165,0.00192041,-0
 .00072979,-0.00075143,0.00061187,-0.04932461,0.65153692,0.00592175,0.0
 0093844,0.01016966,0.00407612,-0.00352390,0.00482060,-0.00120316,-0.00
 351993,-0.00084398,-0.01366102,-0.00552828,-0.10055219,-0.00243627,0.0
 0246785,0.00093104,-0.02268262,-0.01337202,0.00640180,0.00263891,-0.00
 523267,0.00756074,0.00135741,0.00138766,-0.00202468,0.00079061,0.00062
 283,-0.00131090,0.00008545,0.00019162,-0.00034233,0.00005936,0.0004526
 5,-0.00070116,-0.00050289,0.00270826,-0.00460872,0.00000286,0.00074044
 ,-0.00185464,-0.03673665,0.01320081,0.61261426,-0.00129443,-0.00142259
 ,0.00006763,0.00229143,0.00031832,0.00161241,-0.00047684,-0.00220907,-
 0.00091706,-0.00835161,-0.00553587,-0.04208626,-0.00146884,0.00163855,
 0.00075997,-0.00523402,-0.00124455,0.00045652,0.00182416,-0.00151221,0
 .00142894,0.00006872,0.00109479,-0.00022399,0.00008031,0.00024294,-0.0
 0036426,0.00002206,0.00002891,-0.00007128,-0.00000955,0.00011580,-0.00
 013042,-0.00001632,0.00011614,-0.00076899,-0.00010608,0.00010181,-0.00
 048216,-0.05989851,0.00019691,-0.02524413,0.06800986,0.00345377,-0.000
 50253,0.00021834,-0.00200060,-0.00074028,-0.00030424,0.00037489,0.0014
 3147,0.00075617,-0.00403248,-0.00328400,-0.00766041,0.00097005,-0.0009
 5501,-0.00043504,-0.00095409,-0.00012384,0.00063988,-0.00145825,-0.000
 48427,0.00025488,0.00062193,-0.00002361,-0.00012120,-0.00003600,-0.000
 01034,0.00002476,-0.00000778,0.00002643,-0.00003162,-0.00001515,0.0000
 2333,-0.00006840,-0.00006473,0.00052564,-0.00051101,-0.00009309,0.0000
 0976,-0.00010714,-0.00023025,-0.05723945,-0.03762756,0.00362403,0.0594
 9648,0.00222069,-0.00147895,0.00104671,-0.00143578,-0.00029107,0.00022
 962,0.00030068,0.00089459,0.00030996,-0.00278261,-0.00128053,-0.004904
 20,0.00052490,-0.00045264,-0.00011068,-0.00025485,0.00067310,-0.000459
 87,-0.00047906,-0.00018023,-0.00026165,-0.00023686,0.00073810,-0.00029
 864,-0.00007768,-0.00001840,0.00003527,0.00002264,0.00006123,-0.000043
 70,-0.00002555,-0.00001364,0.00002019,-0.00003161,0.00020631,-0.000014
 39,-0.00006612,-0.00003025,0.00003445,-0.02615488,-0.03697161,-0.33374
 587,0.03034438,0.04167808,0.36473365,-0.00088735,-0.00059374,-0.001752
 94,0.00240400,0.00126795,-0.00023147,-0.00039386,-0.00195335,-0.001231
 00,-0.01713136,-0.03392857,0.01831449,-0.00137912,0.00173587,0.0004813
 4,-0.00450250,0.00019193,-0.00212220,0.00221277,-0.00004390,-0.0014514
 8,-0.00024068,0.00052236,0.00111495,-0.00004715,-0.00014042,0.00040265
 ,0.00000317,-0.00004132,0.00008313,-0.00005103,-0.00002353,0.00014649,
 -0.00018072,-0.00048108,0.00047873,-0.00021063,-0.00028277,0.00030896,
 -0.08459300,-0.06995130,0.04207994,0.00157358,0.00398403,-0.00126235,0
 .09499187,0.00424078,-0.00054670,-0.00061832,-0.00253259,-0.00032454,-
 0.00105518,0.00048427,0.00172625,0.00109336,-0.00433941,-0.00399987,-0
 .00042343,0.00117816,-0.00118612,-0.00035808,-0.00024013,0.00041325,0.
 00038081,-0.00145918,-0.00015189,-0.00045898,0.00005759,-0.00000122,0.
 00051923,-0.00006278,0.00004732,-0.00010758,-0.00000767,0.00000093,0.0
 0007255,-0.00002850,-0.00001409,-0.00000469,-0.00017459,0.00008190,0.0
 0050538,-0.00008769,0.00000328,-0.00005095,-0.07082746,-0.25183356,0.1
 1204238,0.00272980,0.00500340,-0.00297374,0.08079347,0.27409763,0.0008
 4452,-0.00032412,0.00060732,-0.00004948,-0.00016021,-0.00027312,0.0000
 1264,0.00011174,-0.00010652,-0.00585423,-0.01139356,0.00457972,0.00001
 430,-0.00006067,0.00003722,-0.00149070,0.00036760,-0.00161741,-0.00003
 769,0.00022708,-0.00096758,0.00062796,-0.00015961,-0.00004770,0.000010
 20,-0.00003622,0.00010858,-0.00001533,-0.00001664,-0.00000261,-0.00002
 704,-0.00004246,0.00009842,-0.00019128,-0.00026618,0.00056531,-0.00010
 753,-0.00013514,0.00015888,0.04204775,0.11150959,-0.11379417,0.0126013
 4,0.03371863,-0.01762225,-0.04357446,-0.12279750,0.12256060,-0.0076215
 1,-0.00149584,-0.00214562,0.00082070,0.00185096,0.00100267,-0.00010203
 ,-0.00099699,-0.00049426,-0.02283552,0.02843395,0.01070823,-0.00037515
 ,0.00067568,0.00026160,0.00076698,0.00276385,0.00155432,0.00109775,-0.
 00024343,0.00009494,-0.00020291,-0.00015480,-0.00007889,-0.00037809,-0
 .00000082,-0.00002941,-0.00003057,-0.00005843,-0.00003207,0.00006455,-
 0.00002358,-0.00001239,-0.00000043,-0.00156674,-0.00092188,-0.00000520
 ,-0.00004037,-0.00002861,-0.15483153,0.12423299,0.04545432,0.00298609,
 -0.00413628,-0.00060594,0.00843201,-0.00972406,-0.00481098,0.17221487,
 -0.00151087,-0.00036626,-0.00131922,-0.00034039,0.00056618,0.00004664,
 0.00004686,0.00003077,0.00006787,-0.00887705,0.00663633,0.00308152,0.0
 0002625,-0.00005178,-0.00008364,-0.00193665,0.00040218,0.00002203,-0.0
 0013268,0.00033394,0.00026637,-0.00032657,0.00027292,0.00020918,-0.000
 12674,-0.00001663,0.00007461,0.00000559,0.00000778,0.00001385,-0.00001
 485,0.00002495,-0.00001565,-0.00116102,0.00046257,-0.00034891,0.000059
 75,0.00000814,-0.00000039,0.13314380,-0.23503719,-0.06594857,0.0017163
 0,-0.00315318,-0.00056034,0.01894436,-0.02331598,-0.01054232,-0.139516
 09,0.25319528,-0.00217254,-0.00133286,0.00095764,-0.00003750,0.0003675
 9,0.00059828,0.00001117,-0.00013267,-0.00016012,-0.00716908,0.00862321
 ,0.00051459,-0.00009451,0.00003803,0.00014751,-0.00083901,0.00070418,-
 0.00002813,0.00017979,0.00026200,-0.00011852,-0.00014982,0.00025029,-0
 .00016157,-0.00008361,0.00009812,-0.00018155,0.00000197,0.00000643,-0.
 00002063,-0.00000558,-0.00001921,0.00004786,-0.00071591,-0.00043363,0.
 00052372,0.00002653,-0.00001234,0.00001591,0.04973154,-0.06726672,-0.0
 8271946,0.02301736,-0.03042411,-0.00894861,-0.01178478,0.01423473,0.00
 571530,-0.04991603,0.07503697,0.08381778\\0.00007653,-0.00005556,0.000
 02187,-0.00008394,-0.00005362,-0.00001366,0.00001118,0.00006061,0.0000
 1962,-0.00000901,0.00017828,0.00001755,-0.00004591,0.00002337,-0.00000
 172,0.00000320,-0.00009381,-0.00000826,0.00004198,-0.00003715,0.000010
 82,-0.00003024,0.00001320,-0.00000758,0.00001139,0.00001080,0.00000140
 ,0.00000308,0.00000197,-0.00001303,-0.00000098,-0.00000843,0.00001054,
 0.00001314,0.00000431,-0.00000177,0.00000676,0.00000878,-0.00001576,0.
 00001180,-0.00002381,-0.00003298,-0.00001072,-0.00000358,0.00000726,0.
 00000037,-0.00001021,0.00000928,0.00000136,-0.00001514,-0.00000358\\\@


     ON THE SURVIVAL OF THE FITTEST -
 "STRONG REPRESENTATIVES FROM EACH PAST ERA THRIVE TODAY,
 SUCH AS PROGRAMMING IN THE THIRTY YEAR OLD LANGUAGE KNOWN
 AS FORTRAN, AND EVEN IN THE ANCIENT SCRIPT KNOWN AS DIRECT
 MACHINE CODE. SOME PEOPLE MIGHT LOOK ON SUCH RELICS AS LIVING
 FOSSILS; OTHERS WOULD POINT OUT THAT EVEN A VERY OLD SPECIES
 MIGHT STILL BE FILLING A PARTICULAR ECOLOGICAL NICHE."
     -- ALAN KAY, SCI.AM. SEPTEMBER 1984
 Job cpu time:       0 days  0 hours  0 minutes  4.7 seconds.
 Elapsed time:       0 days  0 hours  0 minutes  4.6 seconds.
 File lengths (MBytes):  RWF=     25 Int=      0 D2E=      0 Chk=      2 Scr=      1
 Normal termination of Gaussian 16 at Mon Jun  9 21:40:31 2025.
