 Entering Gaussian System, Link 0=g16
 Input=/home/gaussian/Documents/Summer_Internship/Acid_Base_adduct/Acid/BH3/MX3-/planar/BH3_ion_planar_sp.com
 Output=/home/gaussian/Documents/Summer_Internship/Acid_Base_adduct/Acid/BH3/MX3-/planar/BH3_ion_planar_sp.log
 Initial command:
 /usr/local/g16/l1.exe "/home/gaussian/tmp/Gau-30719.inp" -scrdir="/home/gaussian/tmp/"
 Entering Link 1 = /usr/local/g16/l1.exe PID=     30722.
  
 Copyright (c) 1988-2017, Gaussian, Inc.  All Rights Reserved.
  
 This is part of the Gaussian(R) 16 program.  It is based on
 the Gaussian(R) 09 system (copyright 2009, Gaussian, Inc.),
 the Gaussian(R) 03 system (copyright 2003, Gaussian, Inc.),
 the Gaussian(R) 98 system (copyright 1998, Gaussian, Inc.),
 the Gaussian(R) 94 system (copyright 1995, Gaussian, Inc.),
 the Gaussian 92(TM) system (copyright 1992, Gaussian, Inc.),
 the Gaussian 90(TM) system (copyright 1990, Gaussian, Inc.),
 the Gaussian 88(TM) system (copyright 1988, Gaussian, Inc.),
 the Gaussian 86(TM) system (copyright 1986, Carnegie Mellon
 University), and the Gaussian 82(TM) system (copyright 1983,
 Carnegie Mellon University). Gaussian is a federally registered
 trademark of Gaussian, Inc.
  
 This software contains proprietary and confidential information,
 including trade secrets, belonging to Gaussian, Inc.
  
 This software is provided under written license and may be
 used, copied, transmitted, or stored only in accord with that
 written license.
  
 The following legend is applicable only to US Government
 contracts under FAR:
  
                    RESTRICTED RIGHTS LEGEND
  
 Use, reproduction and disclosure by the US Government is
 subject to restrictions as set forth in subparagraphs (a)
 and (c) of the Commercial Computer Software - Restricted
 Rights clause in FAR 52.227-19.
  
 Gaussian, Inc.
 340 Quinnipiac St., Bldg. 40, Wallingford CT 06492
  
  
 ---------------------------------------------------------------
 Warning -- This program may not be used in any manner that
 competes with the business of Gaussian, Inc. or will provide
 assistance to any competitor of Gaussian, Inc.  The licensee
 of this program is prohibited from giving any competitor of
 Gaussian, Inc. access to this program.  By using this program,
 the user acknowledges that Gaussian, Inc. is engaged in the
 business of creating and licensing software in the field of
 computational chemistry and represents and warrants to the
 licensee that it is not a competitor of Gaussian, Inc. and that
 it will not use this program in any manner prohibited above.
 ---------------------------------------------------------------
  

 Cite this work as:
 Gaussian 16, Revision B.01,
 M. J. Frisch, G. W. Trucks, H. B. Schlegel, G. E. Scuseria, 
 M. A. Robb, J. R. Cheeseman, G. Scalmani, V. Barone, 
 G. A. Petersson, H. Nakatsuji, X. Li, M. Caricato, A. V. Marenich, 
 J. Bloino, B. G. Janesko, R. Gomperts, B. Mennucci, H. P. Hratchian, 
 J. V. Ortiz, A. F. Izmaylov, J. L. Sonnenberg, D. Williams-Young, 
 F. Ding, F. Lipparini, F. Egidi, J. Goings, B. Peng, A. Petrone, 
 T. Henderson, D. Ranasinghe, V. G. Zakrzewski, J. Gao, N. Rega, 
 G. Zheng, W. Liang, M. Hada, M. Ehara, K. Toyota, R. Fukuda, 
 J. Hasegawa, M. Ishida, T. Nakajima, Y. Honda, O. Kitao, H. Nakai, 
 T. Vreven, K. Throssell, J. A. Montgomery, Jr., J. E. Peralta, 
 F. Ogliaro, M. J. Bearpark, J. J. Heyd, E. N. Brothers, K. N. Kudin, 
 V. N. Staroverov, T. A. Keith, R. Kobayashi, J. Normand, 
 K. Raghavachari, A. P. Rendell, J. C. Burant, S. S. Iyengar, 
 J. Tomasi, M. Cossi, J. M. Millam, M. Klene, C. Adamo, R. Cammi, 
 J. W. Ochterski, R. L. Martin, K. Morokuma, O. Farkas, 
 J. B. Foresman, and D. J. Fox, Gaussian, Inc., Wallingford CT, 2016.
 
 ******************************************
 Gaussian 16:  EM64L-G16RevB.01 20-Dec-2017
                13-Jun-2025 
 ******************************************
 %chk=BH3_ion_planar_sp.chk
 --------------------------------------
 # uhf/3-21g pop=full geom=connectivity
 --------------------------------------
 1/38=1,57=2,172=1/1;
 2/12=2,17=6,18=5,40=1/2;
 3/5=5,11=2,25=1,30=1,116=2/1,2,3;
 4//1;
 5/5=2,38=5/2;
 6/7=3,28=1/1;
 99/5=1,9=1/99;
 -------------------
 Title Card Required
 -------------------
 Symbolic Z-matrix:
 Charge = -1 Multiplicity = 2
 B                     0.        0.        0. 
 H                     0.        1.21926   0. 
 H                     1.05591  -0.60963   0. 
 H                    -1.05591  -0.60963   0. 
 
                          Input orientation:                          
 ---------------------------------------------------------------------
 Center     Atomic      Atomic             Coordinates (Angstroms)
 Number     Number       Type             X           Y           Z
 ---------------------------------------------------------------------
      1          5           0        0.000000    0.000000    0.000000
      2          1           0        0.000000    1.219258    0.000000
      3          1           0        1.055908   -0.609629    0.000000
      4          1           0       -1.055908   -0.609629    0.000000
 ---------------------------------------------------------------------
                    Distance matrix (angstroms):
                    1          2          3          4
     1  B    0.000000
     2  H    1.219258   0.000000
     3  H    1.219258   2.111817   0.000000
     4  H    1.219258   2.111817   2.111816   0.000000
 Stoichiometry    BH3(1-,2)
 Framework group  D3H[O(B),3C2(H)]
 Deg. of freedom     1
 Full point group                 D3H     NOp  12
 Largest Abelian subgroup         C2V     NOp   4
 Largest concise Abelian subgroup C2      NOp   2
                         Standard orientation:                         
 ---------------------------------------------------------------------
 Center     Atomic      Atomic             Coordinates (Angstroms)
 Number     Number       Type             X           Y           Z
 ---------------------------------------------------------------------
      1          5           0        0.000000    0.000000    0.000000
      2          1           0        0.000000    1.219258    0.000000
      3          1           0       -1.055908   -0.609629    0.000000
      4          1           0        1.055908   -0.609629    0.000000
 ---------------------------------------------------------------------
 Rotational constants (GHZ):         224.8793461         224.8793461         112.4396730
 Standard basis: 3-21G (6D, 7F)
 There are     9 symmetry adapted cartesian basis functions of A1  symmetry.
 There are     0 symmetry adapted cartesian basis functions of A2  symmetry.
 There are     4 symmetry adapted cartesian basis functions of B1  symmetry.
 There are     2 symmetry adapted cartesian basis functions of B2  symmetry.
 There are     9 symmetry adapted basis functions of A1  symmetry.
 There are     0 symmetry adapted basis functions of A2  symmetry.
 There are     4 symmetry adapted basis functions of B1  symmetry.
 There are     2 symmetry adapted basis functions of B2  symmetry.
    15 basis functions,    24 primitive gaussians,    15 cartesian basis functions
     5 alpha electrons        4 beta electrons
       nuclear repulsion energy         7.2619740689 Hartrees.
 NAtoms=    4 NActive=    4 NUniq=    2 SFac= 4.00D+00 NAtFMM=   60 NAOKFM=F Big=F
 Integral buffers will be    131072 words long.
 Raffenetti 2 integral format.
 Two-electron integral symmetry is turned on.
 One-electron integrals computed using PRISM.
 NBasis=    15 RedAO= T EigKep=  3.97D-02  NBF=     9     0     4     2
 NBsUse=    15 1.00D-06 EigRej= -1.00D+00 NBFU=     9     0     4     2
 ExpMin= 1.24D-01 ExpMax= 1.16D+02 ExpMxC= 1.16D+02 IAcc=3 IRadAn=         5 AccDes= 0.00D+00
 Harris functional with IExCor=  205 and IRadAn=       5 diagonalized for initial guess.
 HarFok:  IExCor=  205 AccDes= 0.00D+00 IRadAn=         5 IDoV= 1 UseB2=F ITyADJ=14
 ICtDFT=  3500011 ScaDFX=  1.000000  1.000000  1.000000  1.000000
 FoFCou: FMM=F IPFlag=           0 FMFlag=      100000 FMFlg1=           0
         NFxFlg=           0 DoJE=T BraDBF=F KetDBF=T FulRan=T
         wScrn=  0.000000 ICntrl=       500 IOpCl=  0 I1Cent=   200000004 NGrid=           0
         NMat0=    1 NMatS0=      1 NMatT0=    0 NMatD0=    1 NMtDS0=    0 NMtDT0=    0
 Petite list used in FoFCou.
 Initial guess orbital symmetries:
 Alpha Orbitals:
       Occupied  (A1') (A1') (E') (E') (A2")
       Virtual   (A1') (E') (E') (E') (E') (A2") (A1') (A1') (E')
                 (E')
 Beta  Orbitals:
       Occupied  (A1') (A1') (E') (E')
       Virtual   (A2") (A1') (E') (E') (E') (E') (A2") (A1') (A1')
                 (E') (E')
 The electronic state of the initial guess is 2-A2".
 Initial guess <Sx>= 0.0000 <Sy>= 0.0000 <Sz>= 0.5000 <S**2>= 0.7500 S= 0.5000
 Keep R1 and R2 ints in memory in symmetry-blocked form, NReq=811650.
 Requested convergence on RMS density matrix=1.00D-08 within 128 cycles.
 Requested convergence on MAX density matrix=1.00D-06.
 Requested convergence on             energy=1.00D-06.
 No special actions if energy rises.
 SCF Done:  E(UHF) =  -26.1855279984     A.U. after   11 cycles
            NFock= 11  Conv=0.56D-09     -V/T= 1.9984
 <Sx>= 0.0000 <Sy>= 0.0000 <Sz>= 0.5000 <S**2>= 0.7641 S= 0.5070
 <L.S>= 0.000000000000E+00
 Annihilation of the first spin contaminant:
 S**2 before annihilation     0.7641,   after     0.7501

 **********************************************************************

            Population analysis using the SCF Density.

 **********************************************************************

 Orbital symmetries:
 Alpha Orbitals:
       Occupied  (A1') (A1') (E') (E') (A2")
       Virtual   (A1') (E') (E') (E') (E') (A2") (A1') (A1') (E')
                 (E')
 Beta  Orbitals:
       Occupied  (A1') (A1') (E') (E')
       Virtual   (A2") (E') (E') (A1') (E') (E') (A2") (A1') (A1')
                 (E') (E')
 The electronic state is 2-A2".
 Alpha  occ. eigenvalues --   -7.22878  -0.42180  -0.18703  -0.18703   0.02324
 Alpha virt. eigenvalues --    0.57715   0.57753   0.57753   0.89926   0.89926
 Alpha virt. eigenvalues --    0.93731   1.07732   1.63476   1.70128   1.70128
  Beta  occ. eigenvalues --   -7.21587  -0.36116  -0.18472  -0.18472
  Beta virt. eigenvalues --    0.42410   0.58798   0.58798   0.62525   0.91564
  Beta virt. eigenvalues --    0.91564   1.04422   1.11275   1.63751   1.69631
  Beta virt. eigenvalues --    1.69631
     Alpha Molecular Orbital Coefficients:
                           1         2         3         4         5
                       (A1')--O  (A1')--O   (E')--O   (E')--O  (A2")--O
     Eigenvalues --    -7.22878  -0.42180  -0.18703  -0.18703   0.02324
   1 1   B  1S          0.98736  -0.19583   0.00000  -0.00000   0.00000
   2        2S          0.08714   0.19335   0.00000   0.00000   0.00000
   3        2PX         0.00000   0.00000   0.31986   0.00000   0.00000
   4        2PY         0.00000  -0.00000   0.00000   0.31986   0.00000
   5        2PZ         0.00000   0.00000   0.00000   0.00000   0.39338
   6        3S         -0.04697   0.49911   0.00000  -0.00000   0.00000
   7        3PX         0.00000   0.00000   0.20595   0.00000   0.00000
   8        3PY        -0.00000   0.00000   0.00000   0.20595   0.00000
   9        3PZ         0.00000   0.00000   0.00000   0.00000   0.72774
  10 2   H  1S         -0.00435   0.13668   0.00000   0.23382   0.00000
  11        2S          0.01100   0.10521   0.00000   0.36337   0.00000
  12 3   H  1S         -0.00435   0.13668  -0.20250  -0.11691   0.00000
  13        2S          0.01100   0.10521  -0.31469  -0.18169   0.00000
  14 4   H  1S         -0.00435   0.13668   0.20250  -0.11691   0.00000
  15        2S          0.01100   0.10521   0.31469  -0.18169   0.00000
                           6         7         8         9        10
                       (A1')--V   (E')--V   (E')--V   (E')--V   (E')--V
     Eigenvalues --     0.57715   0.57753   0.57753   0.89926   0.89926
   1 1   B  1S         -0.15377   0.00000   0.00000   0.00000   0.00000
   2        2S          0.03254   0.00000  -0.00000   0.00000  -0.00000
   3        2PX         0.00000   0.10456   0.00000   1.05271   0.00000
   4        2PY         0.00000   0.00000   0.10456   0.00000   1.05271
   5        2PZ         0.00000   0.00000   0.00000   0.00000   0.00000
   6        3S          2.77125   0.00000  -0.00000   0.00000  -0.00000
   7        3PX         0.00000   2.04872   0.00000  -0.74962   0.00000
   8        3PY         0.00000   0.00000   2.04872   0.00000  -0.74962
   9        3PZ         0.00000   0.00000   0.00000   0.00000   0.00000
  10 2   H  1S         -0.05304   0.00000  -0.06701   0.00000   0.20717
  11        2S         -1.31193   0.00000  -1.83184   0.00000  -0.32510
  12 3   H  1S         -0.05304   0.05803   0.03351  -0.17941  -0.10358
  13        2S         -1.31193   1.58642   0.91592   0.28154   0.16255
  14 4   H  1S         -0.05304  -0.05803   0.03351   0.17941  -0.10358
  15        2S         -1.31193  -1.58642   0.91592  -0.28154   0.16255
                          11        12        13        14        15
                       (A2")--V  (A1')--V  (A1')--V   (E')--V   (E')--V
     Eigenvalues --     0.93731   1.07732   1.63476   1.70128   1.70128
   1 1   B  1S          0.00000   0.03377   0.08668   0.00000   0.00000
   2        2S          0.00000  -1.45621  -0.89271  -0.00000   0.00000
   3        2PX         0.00000   0.00000   0.00000   0.00000  -0.53770
   4        2PY         0.00000  -0.00000  -0.00000   0.53770   0.00000
   5        2PZ         1.13218   0.00000   0.00000   0.00000   0.00000
   6        3S          0.00000   1.77759   2.19269   0.00000   0.00000
   7        3PX         0.00000   0.00000   0.00000   0.00000   0.95142
   8        3PY         0.00000  -0.00000   0.00000  -0.95142   0.00000
   9        3PZ        -0.95235   0.00000   0.00000   0.00000   0.00000
  10 2   H  1S          0.00000  -0.28892   0.71534  -1.11881   0.00000
  11        2S          0.00000  -0.10272  -1.13771   1.53145   0.00000
  12 3   H  1S          0.00000  -0.28892   0.71534   0.55941  -0.96892
  13        2S          0.00000  -0.10272  -1.13771  -0.76573   1.32627
  14 4   H  1S          0.00000  -0.28892   0.71534   0.55941   0.96892
  15        2S          0.00000  -0.10272  -1.13771  -0.76573  -1.32627
     Beta Molecular Orbital Coefficients:
                           1         2         3         4         5
                       (A1')--O  (A1')--O   (E')--O   (E')--O  (A2")--V
     Eigenvalues --    -7.21587  -0.36116  -0.18472  -0.18472   0.42410
   1 1   B  1S          0.98796  -0.17751   0.00000  -0.00000   0.00000
   2        2S          0.08547   0.18923   0.00000   0.00000   0.00000
   3        2PX         0.00000   0.00000  -0.29095   0.00000   0.00000
   4        2PY         0.00000  -0.00000   0.00000   0.29095   0.00000
   5        2PZ         0.00000   0.00000   0.00000   0.00000   0.21868
   6        3S         -0.04877   0.25595   0.00000  -0.00000   0.00000
   7        3PX         0.00000   0.00000  -0.14371   0.00000   0.00000
   8        3PY         0.00000   0.00000   0.00000   0.14371   0.00000
   9        3PZ         0.00000   0.00000   0.00000   0.00000   0.86266
  10 2   H  1S         -0.00415   0.15792   0.00000   0.25165   0.00000
  11        2S          0.01152   0.20835   0.00000   0.42175   0.00000
  12 3   H  1S         -0.00415   0.15792   0.21793  -0.12582   0.00000
  13        2S          0.01152   0.20835   0.36524  -0.21087   0.00000
  14 4   H  1S         -0.00415   0.15792  -0.21793  -0.12582   0.00000
  15        2S          0.01152   0.20835  -0.36524  -0.21087   0.00000
                           6         7         8         9        10
                        (E')--V   (E')--V  (A1')--V   (E')--V   (E')--V
     Eigenvalues --     0.58798   0.58798   0.62525   0.91564   0.91564
   1 1   B  1S          0.00000  -0.00000  -0.17036   0.00000   0.00000
   2        2S          0.00000   0.00000   0.08063   0.00000  -0.00000
   3        2PX         0.11209   0.00000   0.00000   1.05159   0.00000
   4        2PY         0.00000   0.11209  -0.00000   0.00000   1.05159
   5        2PZ         0.00000   0.00000   0.00000   0.00000   0.00000
   6        3S          0.00000   0.00000   2.77615   0.00000  -0.00000
   7        3PX         2.06053   0.00000   0.00000  -0.72599   0.00000
   8        3PY         0.00000   2.06053  -0.00000   0.00000  -0.72599
   9        3PZ         0.00000   0.00000   0.00000   0.00000   0.00000
  10 2   H  1S          0.00000  -0.05701  -0.02771   0.00000   0.22286
  11        2S          0.00000  -1.81407  -1.30120   0.00000  -0.34578
  12 3   H  1S          0.04937   0.02851  -0.02771  -0.19300  -0.11143
  13        2S          1.57103   0.90703  -1.30120   0.29946   0.17289
  14 4   H  1S         -0.04937   0.02851  -0.02771   0.19300  -0.11143
  15        2S         -1.57103   0.90703  -1.30120  -0.29946   0.17289
                          11        12        13        14        15
                       (A2")--V  (A1')--V  (A1')--V   (E')--V   (E')--V
     Eigenvalues --     1.04422   1.11275   1.63751   1.69631   1.69631
   1 1   B  1S          0.00000   0.02366   0.09150   0.00000   0.00000
   2        2S          0.00000  -1.41806  -0.95028   0.00000  -0.00000
   3        2PX         0.00000   0.00000   0.00000  -0.55454   0.00000
   4        2PY         0.00000  -0.00000  -0.00000   0.00000   0.55454
   5        2PZ         1.17845   0.00000   0.00000   0.00000   0.00000
   6        3S          0.00000   1.76783   2.23579   0.00000   0.00000
   7        3PX         0.00000   0.00000   0.00000   0.95565   0.00000
   8        3PY         0.00000   0.00000   0.00000   0.00000  -0.95565
   9        3PZ        -0.83210   0.00000   0.00000   0.00000   0.00000
  10 2   H  1S          0.00000  -0.31438   0.70153   0.00000  -1.11247
  11        2S          0.00000  -0.09026  -1.13688   0.00000   1.53311
  12 3   H  1S          0.00000  -0.31438   0.70153  -0.96342   0.55623
  13        2S          0.00000  -0.09026  -1.13688   1.32771  -0.76655
  14 4   H  1S          0.00000  -0.31438   0.70153   0.96342   0.55623
  15        2S          0.00000  -0.09026  -1.13688  -1.32771  -0.76655
     Alpha Density Matrix:
                           1         2         3         4         5
   1 1   B  1S          1.01323
   2        2S          0.04817   0.04498
   3        2PX         0.00000  -0.00000   0.10231
   4        2PY         0.00000   0.00000   0.00000   0.10231
   5        2PZ        -0.00000   0.00000  -0.00000  -0.00000   0.15475
   6        3S         -0.14412   0.09241   0.00000  -0.00000  -0.00000
   7        3PX         0.00000  -0.00000   0.06588  -0.00000   0.00000
   8        3PY         0.00000  -0.00000   0.00000   0.06588   0.00000
   9        3PZ        -0.00000   0.00000  -0.00000   0.00000   0.28628
  10 2   H  1S         -0.03106   0.02605   0.00000   0.07479   0.00000
  11        2S         -0.00974   0.02130   0.00000   0.11623   0.00000
  12 3   H  1S         -0.03106   0.02605  -0.06477  -0.03740   0.00000
  13        2S         -0.00974   0.02130  -0.10066  -0.05811   0.00000
  14 4   H  1S         -0.03106   0.02605   0.06477  -0.03740  -0.00000
  15        2S         -0.00974   0.02130   0.10066  -0.05811  -0.00000
                           6         7         8         9        10
   6        3S          0.25132
   7        3PX        -0.00000   0.04242
   8        3PY        -0.00000  -0.00000   0.04242
   9        3PZ         0.00000  -0.00000   0.00000   0.52961
  10 2   H  1S          0.06842   0.00000   0.04816   0.00000   0.07337
  11        2S          0.05199   0.00000   0.07484   0.00000   0.09930
  12 3   H  1S          0.06842  -0.04170  -0.02408  -0.00000  -0.00864
  13        2S          0.05199  -0.06481  -0.03742  -0.00000  -0.02815
  14 4   H  1S          0.06842   0.04170  -0.02408   0.00000  -0.00864
  15        2S          0.05199   0.06481  -0.03742   0.00000  -0.02815
                          11        12        13        14        15
  11        2S          0.14323
  12 3   H  1S         -0.02815   0.07337
  13        2S         -0.05483   0.09930   0.14323
  14 4   H  1S         -0.02815  -0.00864  -0.02815   0.07337
  15        2S         -0.05483  -0.02815  -0.05483   0.09930   0.14323
     Beta Density Matrix:
                           1         2         3         4         5
   1 1   B  1S          1.00757
   2        2S          0.05085   0.04311
   3        2PX        -0.00000  -0.00000   0.08465
   4        2PY        -0.00000   0.00000   0.00000   0.08465
   5        2PZ         0.00000   0.00000   0.00000  -0.00000   0.00000
   6        3S         -0.09361   0.04427   0.00000   0.00000  -0.00000
   7        3PX         0.00000  -0.00000   0.04181   0.00000  -0.00000
   8        3PY        -0.00000  -0.00000   0.00000   0.04181  -0.00000
   9        3PZ        -0.00000   0.00000  -0.00000  -0.00000   0.00000
  10 2   H  1S         -0.03213   0.02953   0.00000   0.07322   0.00000
  11        2S         -0.02561   0.04041   0.00000   0.12271   0.00000
  12 3   H  1S         -0.03213   0.02953  -0.06341  -0.03661  -0.00000
  13        2S         -0.02561   0.04041  -0.10627  -0.06135  -0.00000
  14 4   H  1S         -0.03213   0.02953   0.06341  -0.03661   0.00000
  15        2S         -0.02561   0.04041   0.10627  -0.06135   0.00000
                           6         7         8         9        10
   6        3S          0.06789
   7        3PX        -0.00000   0.02065
   8        3PY         0.00000   0.00000   0.02065
   9        3PZ         0.00000  -0.00000  -0.00000   0.00000
  10 2   H  1S          0.04062   0.00000   0.03616   0.00000   0.08828
  11        2S          0.05276   0.00000   0.06061   0.00000   0.13898
  12 3   H  1S          0.04062  -0.03132  -0.01808   0.00000  -0.00671
  13        2S          0.05276  -0.05249  -0.03030   0.00000  -0.02021
  14 4   H  1S          0.04062   0.03132  -0.01808  -0.00000  -0.00671
  15        2S          0.05276   0.05249  -0.03030  -0.00000  -0.02021
                          11        12        13        14        15
  11        2S          0.22141
  12 3   H  1S         -0.02021   0.08828
  13        2S         -0.04539   0.13898   0.22141
  14 4   H  1S         -0.02021  -0.00671  -0.02021   0.08828
  15        2S         -0.04539  -0.02021  -0.04539   0.13898   0.22141
    Full Mulliken population analysis:
                           1         2         3         4         5
   1 1   B  1S          2.02080
   2        2S          0.01810   0.08809
   3        2PX         0.00000   0.00000   0.18697
   4        2PY         0.00000   0.00000   0.00000   0.18697
   5        2PZ         0.00000   0.00000   0.00000   0.00000   0.15475
   6        3S         -0.04133   0.10597   0.00000   0.00000   0.00000
   7        3PX         0.00000   0.00000   0.05937   0.00000   0.00000
   8        3PY         0.00000   0.00000   0.00000   0.05937  -0.00000
   9        3PZ         0.00000   0.00000   0.00000  -0.00000   0.15782
  10 2   H  1S         -0.00085   0.01151   0.00000   0.04953  -0.00000
  11        2S         -0.00317   0.02796   0.00000   0.08262  -0.00000
  12 3   H  1S         -0.00085   0.01151   0.03714   0.01238   0.00000
  13        2S         -0.00317   0.02796   0.06196   0.02065  -0.00000
  14 4   H  1S         -0.00085   0.01151   0.03714   0.01238  -0.00000
  15        2S         -0.00317   0.02796   0.06196   0.02065   0.00000
                           6         7         8         9        10
   6        3S          0.31921
   7        3PX         0.00000   0.06307
   8        3PY         0.00000  -0.00000   0.06307
   9        3PZ         0.00000   0.00000  -0.00000   0.52961
  10 2   H  1S          0.03226   0.00000   0.03541  -0.00000   0.16165
  11        2S          0.06875   0.00000   0.08604  -0.00000   0.15391
  12 3   H  1S          0.03226   0.02656   0.00885   0.00000  -0.00002
  13        2S          0.06875   0.06453   0.02151   0.00000  -0.00282
  14 4   H  1S          0.03226   0.02656   0.00885  -0.00000  -0.00002
  15        2S          0.06875   0.06453   0.02151  -0.00000  -0.00282
                          11        12        13        14        15
  11        2S          0.36464
  12 3   H  1S         -0.00282   0.16165
  13        2S         -0.02330   0.15391   0.36464
  14 4   H  1S         -0.00282  -0.00002  -0.00282   0.16165
  15        2S         -0.02330  -0.00282  -0.02330   0.15391   0.36464
     Gross orbital populations:
                         Total     Alpha     Beta      Spin
   1 1   B  1S          1.98552   0.99311   0.99241   0.00070
   2        2S          0.33058   0.17057   0.16001   0.01056
   3        2PX         0.44455   0.23645   0.20809   0.02836
   4        2PY         0.44455   0.23645   0.20809   0.02836
   5        2PZ         0.31257   0.31257   0.00000   0.31257
   6        3S          0.68686   0.46100   0.22586   0.23514
   7        3PX         0.30462   0.18038   0.12424   0.05614
   8        3PY         0.30462   0.18038   0.12424   0.05614
   9        3PZ         0.68743   0.68743   0.00000   0.68743
  10 2   H  1S          0.43774   0.20468   0.23307  -0.02839
  11        2S          0.72850   0.30921   0.41928  -0.11007
  12 3   H  1S          0.43774   0.20468   0.23307  -0.02839
  13        2S          0.72850   0.30921   0.41928  -0.11007
  14 4   H  1S          0.43774   0.20468   0.23307  -0.02839
  15        2S          0.72850   0.30921   0.41928  -0.11007
          Condensed to atoms (all electrons):
               1          2          3          4
     1  B    4.331116   0.390054   0.390054   0.390054
     2  H    0.390054   0.834105  -0.028959  -0.028959
     3  H    0.390054  -0.028959   0.834105  -0.028959
     4  H    0.390054  -0.028959  -0.028959   0.834105
          Atomic-Atomic Spin Densities.
               1          2          3          4
     1  B    1.378982   0.012138   0.012138   0.012138
     2  H    0.012138  -0.144360  -0.003121  -0.003121
     3  H    0.012138  -0.003121  -0.144360  -0.003121
     4  H    0.012138  -0.003121  -0.003121  -0.144360
 Mulliken charges and spin densities:
               1          2
     1  B   -0.501279   1.415394
     2  H   -0.166240  -0.138465
     3  H   -0.166240  -0.138465
     4  H   -0.166240  -0.138465
 Sum of Mulliken charges =  -1.00000   1.00000
 Mulliken charges and spin densities with hydrogens summed into heavy atoms:
               1          2
     1  B   -1.000000   1.000000
 Electronic spatial extent (au):  <R**2>=             45.9316
 Charge=             -1.0000 electrons
 Dipole moment (field-independent basis, Debye):
    X=              0.0000    Y=             -0.0000    Z=             -0.0000  Tot=              0.0000
 Quadrupole moment (field-independent basis, Debye-Ang):
   XX=            -13.4695   YY=            -13.4695   ZZ=            -13.4193
   XY=              0.0000   XZ=              0.0000   YZ=             -0.0000
 Traceless Quadrupole moment (field-independent basis, Debye-Ang):
   XX=             -0.0168   YY=             -0.0168   ZZ=              0.0335
   XY=              0.0000   XZ=              0.0000   YZ=             -0.0000
 Octapole moment (field-independent basis, Debye-Ang**2):
  XXX=              0.0000  YYY=             -1.1441  ZZZ=             -0.0000  XYY=              0.0000
  XXY=              1.1441  XXZ=             -0.0000  XZZ=              0.0000  YZZ=              0.0000
  YYZ=             -0.0000  XYZ=             -0.0000
 Hexadecapole moment (field-independent basis, Debye-Ang**3):
 XXXX=            -34.3140 YYYY=            -34.3140 ZZZZ=            -21.7438 XXXY=              0.0000
 XXXZ=              0.0000 YYYX=              0.0000 YYYZ=             -0.0000 ZZZX=              0.0000
 ZZZY=             -0.0000 XXYY=            -11.4380 XXZZ=             -9.1760 YYZZ=             -9.1760
 XXYZ=              0.0000 YYXZ=              0.0000 ZZXY=              0.0000
 N-N= 7.261974068918D+00 E-N=-7.717545064237D+01  KE= 2.622832038297D+01
 Symmetry A1   KE= 2.440393737632D+01
 Symmetry A2   KE= 0.000000000000D+00
 Symmetry B1   KE= 1.262434418864D+00
 Symmetry B2   KE= 5.619485877887D-01
 Symmetry A1   SP=-1.083768491617D-15
 Symmetry A2   SP= 0.000000000000D+00
 Symmetry B1   SP=-1.184382453223D-15
 Symmetry B2   SP= 1.000000000000D+00
 Orbital energies and kinetic energies (alpha):
                                 1                 2
   1         (A1')--O         -7.228778         10.792616
   2         (A1')--O         -0.421805          0.794837
   3         (E')--O          -0.187027          0.631794
   4         (E')--O          -0.187027          0.631794
   5         (A2")--O          0.023241          0.561949
   6         (A1')--V          0.577149          0.847883
   7         (E')--V           0.577531          0.534891
   8         (E')--V           0.577531          0.534891
   9         (E')--V           0.899256          1.545986
  10         (E')--V           0.899256          1.545986
  11         (A2")--V          0.937314          1.686812
  12         (A1')--V          1.077322          1.497390
  13         (A1')--V          1.634761          2.551424
  14         (E')--V           1.701282          2.556862
  15         (E')--V           1.701282          2.556862
 Orbital energies and kinetic energies (beta):
                                 1                 2
   1         (A1')--O         -7.215875         10.808159
   2         (A1')--O         -0.361164          0.745891
   3         (E')--O          -0.184720          0.630640
   4         (E')--O          -0.184720          0.630640
   5         (A2")--V          0.424096          0.408871
   6         (E')--V           0.587976          0.528116
   7         (E')--V           0.587976          0.528116
   8         (A1')--V          0.625252          0.907517
   9         (E')--V           0.915645          1.556047
  10         (E')--V           0.915645          1.556047
  11         (A2")--V          1.044219          1.839890
  12         (A1')--V          1.112747          1.458953
  13         (A1')--V          1.637512          2.563629
  14         (E')--V           1.696315          2.554730
  15         (E')--V           1.696315          2.554730
 Total kinetic energy from orbitals= 2.622832038297D+01
                          Isotropic Fermi Contact Couplings
        Atom                 a.u.       MegaHertz       Gauss      10(-4) cm-1
     1  B(11)              0.11059     158.62957      56.60298      52.91313
     2  H(1)              -0.02277    -101.79067     -36.32144     -33.95371
     3  H(1)              -0.02277    -101.79067     -36.32144     -33.95371
     4  H(1)              -0.02277    -101.79067     -36.32144     -33.95371
 --------------------------------------------------------
       Center         ----  Spin Dipole Couplings  ----
                      3XX-RR        3YY-RR        3ZZ-RR
 --------------------------------------------------------
     1   Atom       -0.169166     -0.169166      0.338333
     2   Atom       -0.042133      0.037228      0.004905
     3   Atom        0.017388     -0.022293      0.004905
     4   Atom        0.017388     -0.022293      0.004905
 --------------------------------------------------------
                        XY            XZ            YZ
 --------------------------------------------------------
     1   Atom       -0.000000     -0.000000      0.000000
     2   Atom       -0.000000      0.000000     -0.000000
     3   Atom        0.034364      0.000000      0.000000
     4   Atom       -0.034364     -0.000000      0.000000
 --------------------------------------------------------


 ---------------------------------------------------------------------------------
              Anisotropic Spin Dipole Couplings in Principal Axis System
 ---------------------------------------------------------------------------------

       Atom             a.u.   MegaHertz   Gauss  10(-4) cm-1        Axes

              Baa    -0.1692   -28.964   -10.335    -9.661  0.6517  0.7585  0.0000
     1 B(11)  Bbb    -0.1692   -28.964   -10.335    -9.661  0.7585 -0.6517 -0.0000
              Bcc     0.3383    57.928    20.670    19.323  0.0000  0.0000  1.0000
 
              Baa    -0.0421   -22.480    -8.022    -7.499  1.0000  0.0000  0.0000
     2 H(1)   Bbb     0.0049     2.617     0.934     0.873  0.0000  0.0000  1.0000
              Bcc     0.0372    19.863     7.088     6.626 -0.0000  1.0000  0.0000
 
              Baa    -0.0421   -22.480    -8.022    -7.499 -0.5000  0.8660  0.0000
     3 H(1)   Bbb     0.0049     2.617     0.934     0.873  0.0000  0.0000  1.0000
              Bcc     0.0372    19.863     7.088     6.626  0.8660  0.5000 -0.0000
 
              Baa    -0.0421   -22.480    -8.022    -7.499  0.5000  0.8660 -0.0000
     4 H(1)   Bbb     0.0049     2.617     0.934     0.873  0.0000  0.0000  1.0000
              Bcc     0.0372    19.863     7.088     6.626  0.8660 -0.5000  0.0000
 

 ---------------------------------------------------------------------------------

 1\1\GINC-IISERK51\SP\UHF\3-21G\B1H3(1-,2)\GAUSSIAN\13-Jun-2025\0\\# uh
 f/3-21g pop=full geom=connectivity\\Title Card Required\\-1,2\B,0,0.,0
 .,0.\H,0,0.,1.219258,0.\H,0,1.055908,-0.609629,0.\H,0,-1.055908,-0.609
 629,0.\\Version=EM64L-G16RevB.01\State=2-A2"\HF=-26.185528\S2=0.764102
 \S2-1=0.\S2A=0.750111\RMSD=5.614e-10\Dipole=0.,0.,0.\Quadrupole=-0.012
 4648,-0.0124648,0.0249296,0.,0.,0.\PG=D03H [O(B1),3C2(H1)]\\@


 TERRY FORSTER, PORTLY ATLANTA BRAVES RELIEVER,
 ANNOUNCING THAT HE WAS GOING TO A FAT FARM:
 "A WAIST IS A TERRIBLE THING TO MIND."
 Job cpu time:       0 days  0 hours  0 minutes  0.4 seconds.
 Elapsed time:       0 days  0 hours  0 minutes  0.4 seconds.
 File lengths (MBytes):  RWF=      6 Int=      0 D2E=      0 Chk=      1 Scr=      1
 Normal termination of Gaussian 16 at Fri Jun 13 21:03:54 2025.
