 Entering Gaussian System, Link 0=g16
 Input=/home/gaussian/Documents/Summer_Internship/Acid_Base_adduct/Adduct/3,5 DMP - BCl3/35DMP_BCl3_adduct_sp.com
 Output=/home/gaussian/Documents/Summer_Internship/Acid_Base_adduct/Adduct/3,5 DMP - BCl3/35DMP_BCl3_adduct_sp.log
 Initial command:
 /usr/local/g16/l1.exe "/home/gaussian/tmp/Gau-80923.inp" -scrdir="/home/gaussian/tmp/"
 Entering Link 1 = /usr/local/g16/l1.exe PID=     80926.
  
 Copyright (c) 1988-2017, Gaussian, Inc.  All Rights Reserved.
  
 This is part of the Gaussian(R) 16 program.  It is based on
 the Gaussian(R) 09 system (copyright 2009, Gaussian, Inc.),
 the Gaussian(R) 03 system (copyright 2003, Gaussian, Inc.),
 the Gaussian(R) 98 system (copyright 1998, Gaussian, Inc.),
 the Gaussian(R) 94 system (copyright 1995, Gaussian, Inc.),
 the Gaussian 92(TM) system (copyright 1992, Gaussian, Inc.),
 the Gaussian 90(TM) system (copyright 1990, Gaussian, Inc.),
 the Gaussian 88(TM) system (copyright 1988, Gaussian, Inc.),
 the Gaussian 86(TM) system (copyright 1986, Carnegie Mellon
 University), and the Gaussian 82(TM) system (copyright 1983,
 Carnegie Mellon University). Gaussian is a federally registered
 trademark of Gaussian, Inc.
  
 This software contains proprietary and confidential information,
 including trade secrets, belonging to Gaussian, Inc.
  
 This software is provided under written license and may be
 used, copied, transmitted, or stored only in accord with that
 written license.
  
 The following legend is applicable only to US Government
 contracts under FAR:
  
                    RESTRICTED RIGHTS LEGEND
  
 Use, reproduction and disclosure by the US Government is
 subject to restrictions as set forth in subparagraphs (a)
 and (c) of the Commercial Computer Software - Restricted
 Rights clause in FAR 52.227-19.
  
 Gaussian, Inc.
 340 Quinnipiac St., Bldg. 40, Wallingford CT 06492
  
  
 ---------------------------------------------------------------
 Warning -- This program may not be used in any manner that
 competes with the business of Gaussian, Inc. or will provide
 assistance to any competitor of Gaussian, Inc.  The licensee
 of this program is prohibited from giving any competitor of
 Gaussian, Inc. access to this program.  By using this program,
 the user acknowledges that Gaussian, Inc. is engaged in the
 business of creating and licensing software in the field of
 computational chemistry and represents and warrants to the
 licensee that it is not a competitor of Gaussian, Inc. and that
 it will not use this program in any manner prohibited above.
 ---------------------------------------------------------------
  

 Cite this work as:
 Gaussian 16, Revision B.01,
 M. J. Frisch, G. W. Trucks, H. B. Schlegel, G. E. Scuseria, 
 M. A. Robb, J. R. Cheeseman, G. Scalmani, V. Barone, 
 G. A. Petersson, H. Nakatsuji, X. Li, M. Caricato, A. V. Marenich, 
 J. Bloino, B. G. Janesko, R. Gomperts, B. Mennucci, H. P. Hratchian, 
 J. V. Ortiz, A. F. Izmaylov, J. L. Sonnenberg, D. Williams-Young, 
 F. Ding, F. Lipparini, F. Egidi, J. Goings, B. Peng, A. Petrone, 
 T. Henderson, D. Ranasinghe, V. G. Zakrzewski, J. Gao, N. Rega, 
 G. Zheng, W. Liang, M. Hada, M. Ehara, K. Toyota, R. Fukuda, 
 J. Hasegawa, M. Ishida, T. Nakajima, Y. Honda, O. Kitao, H. Nakai, 
 T. Vreven, K. Throssell, J. A. Montgomery, Jr., J. E. Peralta, 
 F. Ogliaro, M. J. Bearpark, J. J. Heyd, E. N. Brothers, K. N. Kudin, 
 V. N. Staroverov, T. A. Keith, R. Kobayashi, J. Normand, 
 K. Raghavachari, A. P. Rendell, J. C. Burant, S. S. Iyengar, 
 J. Tomasi, M. Cossi, J. M. Millam, M. Klene, C. Adamo, R. Cammi, 
 J. W. Ochterski, R. L. Martin, K. Morokuma, O. Farkas, 
 J. B. Foresman, and D. J. Fox, Gaussian, Inc., Wallingford CT, 2016.
 
 ******************************************
 Gaussian 16:  EM64L-G16RevB.01 20-Dec-2017
                16-Jun-2025 
 ******************************************
 %chk=35DMP_BCl3_adduct_sp.chk
 -------------------------------------
 # hf/3-21g pop=full geom=connectivity
 -------------------------------------
 1/38=1,57=2,172=1/1;
 2/12=2,17=6,18=5,40=1/2;
 3/5=5,11=9,25=1,30=1/1,2,3;
 4//1;
 5/5=2,38=5/2;
 6/7=3,28=1/1;
 99/5=1,9=1/99;
 -------------------
 Title Card Required
 -------------------
 Symbolic Z-matrix:
 Charge =  0 Multiplicity = 1
 C                    -0.83436   1.2075    0.00005 
 C                    -2.21291   1.21059  0. 
 C                    -2.85697  -0.01394  -0.00012 
 C                    -2.14052  -1.20433  -0.00012 
 C                    -0.77111  -1.11976  -0.00004 
 N                    -0.13594   0.06653   0.00005 
 H                    -3.9299   -0.04611  -0.00023 
 H                    -0.27056   2.11103   0.00013 
 H                    -0.15117  -1.98807  -0.00009 
 C                    -2.98625   2.51252   0.00008 
 H                    -3.61578   2.58056   0.87984 
 H                    -2.31577   3.36176  -0.00022 
 H                    -3.61631   2.58038  -0.87932 
 C                    -2.84084  -2.54644   0.00015 
 H                    -3.4621   -2.65004   0.88234 
 H                    -3.46957  -2.64663  -0.87711 
 H                    -2.12452  -3.35718  -0.00449 
 B                     1.47036   0.03039   0. 
 Cl                    1.9878   -0.91504  -1.5584 
 Cl                    2.16624   1.78148   0.00045 
 Cl                    1.98792  -0.91586   1.55788 
 
                          Input orientation:                          
 ---------------------------------------------------------------------
 Center     Atomic      Atomic             Coordinates (Angstroms)
 Number     Number       Type             X           Y           Z
 ---------------------------------------------------------------------
      1          6           0       -0.834360    1.207501    0.000053
      2          6           0       -2.212907    1.210591   -0.000002
      3          6           0       -2.856970   -0.013944   -0.000123
      4          6           0       -2.140521   -1.204332   -0.000118
      5          6           0       -0.771105   -1.119761   -0.000041
      6          7           0       -0.135941    0.066533    0.000049
      7          1           0       -3.929899   -0.046111   -0.000234
      8          1           0       -0.270564    2.111029    0.000128
      9          1           0       -0.151170   -1.988071   -0.000091
     10          6           0       -2.986254    2.512521    0.000075
     11          1           0       -3.615781    2.580561    0.879839
     12          1           0       -2.315773    3.361759   -0.000216
     13          1           0       -3.616307    2.580377   -0.879321
     14          6           0       -2.840837   -2.546438    0.000145
     15          1           0       -3.462101   -2.650044    0.882343
     16          1           0       -3.469569   -2.646625   -0.877111
     17          1           0       -2.124515   -3.357176   -0.004486
     18          5           0        1.470357    0.030388    0.000002
     19         17           0        1.987795   -0.915042   -1.558400
     20         17           0        2.166243    1.781479    0.000453
     21         17           0        1.987916   -0.915860    1.557880
 ---------------------------------------------------------------------
                    Distance matrix (angstroms):
                    1          2          3          4          5
     1  C    0.000000
     2  C    1.378550   0.000000
     3  C    2.362812   1.383583   0.000000
     4  C    2.742808   2.416008   1.389361   0.000000
     5  C    2.328121   2.740316   2.360861   1.372025   0.000000
     6  N    1.337758   2.371214   2.722219   2.373487   1.345632
     7  H    3.339746   2.127760   1.073411   2.131513   3.336271
     8  H    1.065002   2.140908   3.347388   3.806358   3.269334
     9  H    3.267787   3.805548   3.349408   2.138168   1.066903
    10  C    2.516689   1.514294   2.529771   3.811858   4.254452
    11  H    3.224224   2.149184   2.842813   4.156457   4.749606
    12  H    2.614462   2.153626   3.418810   4.569453   4.740255
    13  H    3.224487   2.149197   2.842549   4.156316   4.749666
    14  C    4.256525   3.809142   2.532545   1.513833   2.513801
    15  H    4.750170   4.152532   2.844987   2.148347   3.218979
    16  H    4.750582   4.150498   2.841724   2.148417   3.222154
    17  H    4.743500   4.568624   3.422530   2.152908   2.614912
    18  B    2.587917   3.867727   4.327554   3.816146   2.519324
    19  Cl   3.859861   4.959115   5.168361   4.422095   3.175204
    20  Cl   3.055007   4.416205   5.334437   5.240542   4.128584
    21  Cl   3.860146   4.959406   5.168534   4.422054   3.175042
                    6          7          8          9         10
     6  N    0.000000
     7  H    3.795630   0.000000
     8  H    2.048923   4.247821   0.000000
     9  H    2.054660   4.248529   4.100838   0.000000
    10  C    3.755947   2.727098   2.745208   5.319119   0.000000
    11  H    4.382197   2.787939   3.490677   5.800880   1.083937
    12  H    3.950972   3.770806   2.397333   5.771151   1.082012
    13  H    4.382425   2.787395   3.491091   5.800943   1.083932
    14  C    3.760862   2.727213   5.319615   2.747013   5.061049
    15  H    4.384242   2.788950   5.799313   3.489866   5.258983
    16  H    4.386766   2.782713   5.799867   3.494943   5.255458
    17  H    3.959322   3.771284   5.773943   2.401782   5.932618
    18  B    1.606705   5.400798   2.712909   2.589117   5.101212
    19  Cl   2.811140   6.180779   4.084887   2.855677   6.238445
    20  Cl   2.870730   6.364199   2.458990   4.424919   5.204099
    21  Cl   2.811174   6.180996   4.085264   2.855276   6.238824
                   11         12         13         14         15
    11  H    0.000000
    12  H    1.753507   0.000000
    13  H    1.759160   1.753503   0.000000
    14  C    5.259327   5.931482   5.259187   0.000000
    15  H    5.232863   6.183426   5.521281   1.083963   0.000000
    16  H    5.516496   6.180685   5.229062   1.083937   1.759473
    17  H    6.185679   6.721658   6.184280   1.081866   1.753750
    18  B    5.757282   5.043096   5.757587   5.022592   5.682639
    19  Cl   7.040193   6.264157   6.639658   5.329747   6.218426
    20  Cl   5.902851   4.752447   5.903399   6.618286   7.217644
    21  Cl   6.639738   6.264777   7.040663   5.329369   5.759030
                   16         17         18         19         20
    16  H    0.000000
    17  H    1.753718   0.000000
    18  B    5.686703   4.939506   0.000000
    19  Cl   5.765879   5.028893   1.894781   0.000000
    20  Cl   7.220845   6.694505   1.884298   3.119790   0.000000
    21  Cl   6.221645   5.031213   1.894792   3.116280   3.119778
                   21
    21  Cl   0.000000
 Stoichiometry    C7H9BCl3N
 Framework group  C1[X(C7H9BCl3N)]
 Deg. of freedom    57
 Full point group                 C1      NOp   1
 Largest Abelian subgroup         C1      NOp   1
 Largest concise Abelian subgroup C1      NOp   1
                         Standard orientation:                         
 ---------------------------------------------------------------------
 Center     Atomic      Atomic             Coordinates (Angstroms)
 Number     Number       Type             X           Y           Z
 ---------------------------------------------------------------------
      1          6           0        0.834360    1.207501   -0.000053
      2          6           0        2.212907    1.210591    0.000002
      3          6           0        2.856970   -0.013944    0.000123
      4          6           0        2.140521   -1.204332    0.000118
      5          6           0        0.771105   -1.119761    0.000041
      6          7           0        0.135941    0.066533   -0.000049
      7          1           0        3.929899   -0.046110    0.000234
      8          1           0        0.270564    2.111029   -0.000128
      9          1           0        0.151170   -1.988071    0.000091
     10          6           0        2.986254    2.512521   -0.000075
     11          1           0        3.615781    2.580562   -0.879839
     12          1           0        2.315772    3.361759    0.000216
     13          1           0        3.616307    2.580378    0.879321
     14          6           0        2.840838   -2.546438   -0.000145
     15          1           0        3.462102   -2.650043   -0.882343
     16          1           0        3.469570   -2.646624    0.877111
     17          1           0        2.124516   -3.357176    0.004486
     18          5           0       -1.470357    0.030388   -0.000002
     19         17           0       -1.987795   -0.915042    1.558400
     20         17           0       -2.166243    1.781479   -0.000453
     21         17           0       -1.987916   -0.915860   -1.557880
 ---------------------------------------------------------------------
 Rotational constants (GHZ):           0.8119053           0.4430949           0.3566043
 Standard basis: 3-21G (6D, 7F)
 There are   138 symmetry adapted cartesian basis functions of A   symmetry.
 There are   138 symmetry adapted basis functions of A   symmetry.
   138 basis functions,   243 primitive gaussians,   138 cartesian basis functions
    57 alpha electrons       57 beta electrons
       nuclear repulsion energy       974.3911879190 Hartrees.
 NAtoms=   21 NActive=   21 NUniq=   21 SFac= 1.00D+00 NAtFMM=   60 NAOKFM=F Big=F
 Integral buffers will be    131072 words long.
 Raffenetti 1 integral format.
 Two-electron integral symmetry is turned on.
 One-electron integrals computed using PRISM.
 NBasis=   138 RedAO= T EigKep=  2.13D-03  NBF=   138
 NBsUse=   138 1.00D-06 EigRej= -1.00D+00 NBFU=   138
 ExpMin= 1.24D-01 ExpMax= 1.38D+03 ExpMxC= 1.38D+03 IAcc=3 IRadAn=         5 AccDes= 0.00D+00
 Harris functional with IExCor=  205 and IRadAn=       5 diagonalized for initial guess.
 HarFok:  IExCor=  205 AccDes= 0.00D+00 IRadAn=         5 IDoV= 1 UseB2=F ITyADJ=14
 ICtDFT=  3500011 ScaDFX=  1.000000  1.000000  1.000000  1.000000
 FoFCou: FMM=F IPFlag=           0 FMFlag=      100000 FMFlg1=           0
         NFxFlg=           0 DoJE=T BraDBF=F KetDBF=T FulRan=T
         wScrn=  0.000000 ICntrl=       500 IOpCl=  0 I1Cent=   200000004 NGrid=           0
         NMat0=    1 NMatS0=      1 NMatT0=    0 NMatD0=    1 NMtDS0=    0 NMtDT0=    0
 Petite list used in FoFCou.
 Keep R1 ints in memory in canonical form, NReq=47342355.
 Requested convergence on RMS density matrix=1.00D-08 within 128 cycles.
 Requested convergence on MAX density matrix=1.00D-06.
 Requested convergence on             energy=1.00D-06.
 No special actions if energy rises.
 SCF Done:  E(RHF) =  -1719.56480032     A.U. after   13 cycles
            NFock= 13  Conv=0.89D-08     -V/T= 2.0010

 **********************************************************************

            Population analysis using the SCF Density.

 **********************************************************************

 Orbital symmetries:
       Occupied  (A) (A) (A) (A) (A) (A) (A) (A) (A) (A) (A) (A)
                 (A) (A) (A) (A) (A) (A) (A) (A) (A) (A) (A) (A)
                 (A) (A) (A) (A) (A) (A) (A) (A) (A) (A) (A) (A)
                 (A) (A) (A) (A) (A) (A) (A) (A) (A) (A) (A) (A)
                 (A) (A) (A) (A) (A) (A) (A) (A) (A)
       Virtual   (A) (A) (A) (A) (A) (A) (A) (A) (A) (A) (A) (A)
                 (A) (A) (A) (A) (A) (A) (A) (A) (A) (A) (A) (A)
                 (A) (A) (A) (A) (A) (A) (A) (A) (A) (A) (A) (A)
                 (A) (A) (A) (A) (A) (A) (A) (A) (A) (A) (A) (A)
                 (A) (A) (A) (A) (A) (A) (A) (A) (A) (A) (A) (A)
                 (A) (A) (A) (A) (A) (A) (A) (A) (A) (A) (A) (A)
                 (A) (A) (A) (A) (A) (A) (A) (A) (A)
 The electronic state is 1-A.
 Alpha  occ. eigenvalues -- -104.07253-104.06229-104.06210 -15.62593 -11.29353
 Alpha  occ. eigenvalues --  -11.29251 -11.26201 -11.25554 -11.25544 -11.21285
 Alpha  occ. eigenvalues --  -11.21190 -10.46672 -10.45724 -10.45663  -7.92983
 Alpha  occ. eigenvalues --   -7.92654  -7.92622  -7.92028  -7.92016  -7.91684
 Alpha  occ. eigenvalues --   -7.91683  -7.91676  -7.91660  -7.71391  -1.37727
 Alpha  occ. eigenvalues --   -1.18680  -1.14138  -1.10661  -1.05903  -1.04835
 Alpha  occ. eigenvalues --   -1.01740  -1.00747  -0.94028  -0.88284  -0.80763
 Alpha  occ. eigenvalues --   -0.76540  -0.72871  -0.66352  -0.65632  -0.65287
 Alpha  occ. eigenvalues --   -0.62132  -0.61643  -0.60853  -0.59958  -0.59139
 Alpha  occ. eigenvalues --   -0.55659  -0.54972  -0.52342  -0.52016  -0.45793
 Alpha  occ. eigenvalues --   -0.44920  -0.43785  -0.42911  -0.41597  -0.41359
 Alpha  occ. eigenvalues --   -0.40446  -0.39688
 Alpha virt. eigenvalues --    0.03294   0.09167   0.22548   0.23785   0.24291
 Alpha virt. eigenvalues --    0.24728   0.25643   0.26803   0.27688   0.28620
 Alpha virt. eigenvalues --    0.29230   0.31585   0.31704   0.32858   0.34326
 Alpha virt. eigenvalues --    0.36408   0.40444   0.41320   0.43841   0.46913
 Alpha virt. eigenvalues --    0.53240   0.54726   0.62014   0.65772   0.68644
 Alpha virt. eigenvalues --    0.71786   0.73182   0.76552   0.79020   0.81115
 Alpha virt. eigenvalues --    0.81516   0.82090   0.85227   0.86732   0.86761
 Alpha virt. eigenvalues --    0.87819   0.88241   0.89441   0.90607   0.91415
 Alpha virt. eigenvalues --    0.93075   0.94276   0.95331   0.97933   0.98099
 Alpha virt. eigenvalues --    1.01147   1.01973   1.07072   1.10614   1.11317
 Alpha virt. eigenvalues --    1.14550   1.15544   1.15771   1.16209   1.19133
 Alpha virt. eigenvalues --    1.19877   1.29081   1.29851   1.31005   1.31704
 Alpha virt. eigenvalues --    1.31795   1.32005   1.33454   1.36540   1.41182
 Alpha virt. eigenvalues --    1.48101   1.53442   1.55748   1.58854   1.66549
 Alpha virt. eigenvalues --    1.69309   1.74102   1.79670   1.88755   1.91509
 Alpha virt. eigenvalues --    2.11244   2.17613   2.20659   2.23739   2.30820
 Alpha virt. eigenvalues --    3.22914
     Molecular Orbital Coefficients:
                           1         2         3         4         5
                           O         O         O         O         O
     Eigenvalues --  -104.07253-104.06229-104.06210 -15.62593 -11.29353
   1 1   C  1S         -0.00005   0.00000  -0.00000  -0.00015   0.96237
   2        2S         -0.00040  -0.00000  -0.00003  -0.00046   0.09577
   3        2PX        -0.00016   0.00000   0.00004  -0.00101  -0.00001
   4        2PY        -0.00011  -0.00000   0.00000  -0.00078  -0.00190
   5        2PZ        -0.00000   0.00017  -0.00000   0.00000   0.00000
   6        3S          0.00310  -0.00000  -0.00026   0.03053  -0.06823
   7        3PX         0.00187  -0.00000  -0.00049   0.00457  -0.01598
   8        3PY         0.00167   0.00000   0.00011  -0.02817  -0.00090
   9        3PZ         0.00000  -0.00051   0.00000   0.00000  -0.00000
  10 2   C  1S          0.00004  -0.00000  -0.00001   0.00047  -0.00305
  11        2S          0.00025  -0.00000  -0.00005   0.00209  -0.00330
  12        2PX        -0.00005   0.00000   0.00004   0.00002   0.00198
  13        2PY         0.00006   0.00000   0.00002  -0.00113  -0.00038
  14        2PZ         0.00000  -0.00004   0.00000   0.00000   0.00000
  15        3S         -0.00247   0.00000   0.00051  -0.02556   0.02073
  16        3PX         0.00187  -0.00000  -0.00052   0.01037  -0.02196
  17        3PY        -0.00058  -0.00000  -0.00040   0.02795   0.00597
  18        3PZ         0.00000   0.00022  -0.00000  -0.00000  -0.00000
  19 3   C  1S         -0.00001   0.00000   0.00001  -0.00039  -0.00336
  20        2S         -0.00005   0.00000   0.00004  -0.00181  -0.00150
  21        2PX         0.00007   0.00000   0.00002  -0.00008   0.00047
  22        2PY        -0.00001   0.00000   0.00001  -0.00000  -0.00094
  23        2PZ         0.00000  -0.00001   0.00000   0.00000   0.00000
  24        3S         -0.00015  -0.00001  -0.00096   0.03497   0.00867
  25        3PX        -0.00097   0.00000   0.00053  -0.02103  -0.00459
  26        3PY        -0.00034   0.00000   0.00034   0.00120   0.00802
  27        3PZ        -0.00000   0.00006  -0.00000  -0.00000  -0.00000
  28 4   C  1S          0.00003  -0.00000  -0.00001   0.00049   0.00064
  29        2S          0.00018   0.00000  -0.00002   0.00221   0.00143
  30        2PX        -0.00002  -0.00000   0.00002   0.00004  -0.00035
  31        2PY        -0.00003  -0.00000  -0.00008   0.00110   0.00001
  32        2PZ        -0.00000   0.00008  -0.00000  -0.00000   0.00000
  33        3S         -0.00236  -0.00000   0.00014  -0.02609  -0.01596
  34        3PX         0.00128   0.00000   0.00018   0.01013   0.01413
  35        3PY        -0.00036   0.00001   0.00127  -0.02762  -0.00551
  36        3PZ         0.00000  -0.00043   0.00000   0.00000   0.00000
  37 5   C  1S          0.00000  -0.00000   0.00000  -0.00023  -0.21935
  38        2S          0.00002   0.00000   0.00004  -0.00090  -0.02380
  39        2PX        -0.00018  -0.00000  -0.00012  -0.00093  -0.00051
  40        2PY         0.00006   0.00000   0.00009   0.00101  -0.00185
  41        2PZ         0.00000  -0.00025   0.00000   0.00000  -0.00000
  42        3S          0.00128   0.00000   0.00021   0.03263   0.02437
  43        3PX         0.00209   0.00000   0.00029   0.00684   0.01584
  44        3PY        -0.00031  -0.00001  -0.00131   0.02600   0.00826
  45        3PZ         0.00000   0.00071  -0.00000  -0.00000   0.00000
  46 6   N  1S         -0.00005  -0.00000  -0.00004   0.98679   0.00021
  47        2S         -0.00033  -0.00000  -0.00019   0.10718   0.00125
  48        2PX         0.00002  -0.00000  -0.00007   0.00234  -0.00017
  49        2PY        -0.00006   0.00000   0.00000  -0.00004   0.00036
  50        2PZ         0.00000   0.00000   0.00000   0.00000   0.00000
  51        3S          0.00178   0.00001   0.00175  -0.09306  -0.00283
  52        3PX        -0.00038  -0.00000  -0.00016  -0.01634  -0.00033
  53        3PY         0.00063  -0.00000  -0.00052   0.00019  -0.00410
  54        3PZ        -0.00000  -0.00042   0.00000  -0.00000  -0.00000
  55 7   H  1S          0.00013  -0.00000  -0.00001   0.00062   0.00007
  56        2S          0.00036  -0.00000  -0.00012   0.00499   0.00173
  57 8   H  1S          0.00035  -0.00000  -0.00005   0.00065  -0.00224
  58        2S         -0.00236  -0.00000  -0.00015   0.00856   0.01163
  59 9   H  1S          0.00022   0.00000   0.00030   0.00072   0.00148
  60        2S         -0.00048  -0.00001  -0.00112   0.00631   0.00384
  61 10  C  1S          0.00000  -0.00000  -0.00000   0.00010  -0.00153
  62        2S          0.00004  -0.00000  -0.00002   0.00024  -0.00088
  63        2PX        -0.00003  -0.00000   0.00000   0.00063   0.00063
  64        2PY        -0.00001  -0.00000  -0.00001   0.00077   0.00038
  65        2PZ         0.00000  -0.00000   0.00000   0.00000   0.00000
  66        3S          0.00000   0.00000   0.00026  -0.01170   0.00068
  67        3PX        -0.00027  -0.00000  -0.00006   0.00256   0.00175
  68        3PY         0.00000  -0.00000  -0.00012   0.00348  -0.00216
  69        3PZ        -0.00000  -0.00005   0.00000  -0.00000  -0.00000
  70 11  H  1S          0.00001  -0.00002  -0.00001   0.00034  -0.00012
  71        2S          0.00005   0.00002  -0.00000   0.00014  -0.00021
  72 12  H  1S         -0.00009  -0.00000  -0.00002   0.00017   0.00006
  73        2S          0.00013   0.00000   0.00002   0.00101   0.00108
  74 13  H  1S          0.00001   0.00002  -0.00001   0.00034  -0.00012
  75        2S          0.00005  -0.00002  -0.00000   0.00014  -0.00021
  76 14  C  1S          0.00000  -0.00000  -0.00001   0.00010  -0.00005
  77        2S          0.00004  -0.00000  -0.00003   0.00027   0.00004
  78        2PX        -0.00001  -0.00000  -0.00003   0.00056  -0.00002
  79        2PY         0.00002   0.00000   0.00003  -0.00080  -0.00017
  80        2PZ        -0.00000  -0.00000   0.00000   0.00000  -0.00000
  81        3S         -0.00018   0.00000   0.00054  -0.01168  -0.00304
  82        3PX        -0.00012  -0.00000  -0.00019   0.00217  -0.00056
  83        3PY        -0.00015   0.00000   0.00024  -0.00354  -0.00208
  84        3PZ         0.00000   0.00013  -0.00000  -0.00001   0.00000
  85 15  H  1S          0.00001   0.00003  -0.00002   0.00034   0.00010
  86        2S          0.00002   0.00000   0.00001   0.00018   0.00018
  87 16  H  1S          0.00001  -0.00003  -0.00002   0.00034   0.00010
  88        2S          0.00002  -0.00000   0.00001   0.00019   0.00018
  89 17  H  1S         -0.00002  -0.00000  -0.00005   0.00010   0.00004
  90        2S         -0.00005  -0.00000   0.00006   0.00117  -0.00084
  91 18  B  1S          0.00007   0.00000   0.00020  -0.00079  -0.00042
  92        2S          0.00049   0.00001   0.00170  -0.00322  -0.00276
  93        2PX        -0.00039  -0.00000  -0.00013   0.00156  -0.00091
  94        2PY         0.00014   0.00000   0.00002   0.00012  -0.00017
  95        2PZ        -0.00000  -0.00009   0.00000   0.00000  -0.00000
  96        3S         -0.00526  -0.00006  -0.00901   0.01821   0.00843
  97        3PX         0.00220   0.00001   0.00128   0.00527   0.00329
  98        3PY        -0.00523   0.00002   0.00244   0.00072   0.00424
  99        3PZ         0.00000   0.00496  -0.00003  -0.00000   0.00000
 100 19  Cl 1S         -0.00773  -0.69245   0.70173   0.00000  -0.00001
 101        2S         -0.00046  -0.03734   0.03776   0.00001   0.00001
 102        2PX         0.00001  -0.00006   0.00005   0.00001  -0.00003
 103        2PY        -0.00005  -0.00008   0.00006   0.00006  -0.00002
 104        2PZ         0.00002   0.00016  -0.00009  -0.00005  -0.00002
 105        3S          0.00044   0.01395  -0.01376   0.00127   0.00033
 106        3PX        -0.00002   0.00023  -0.00021   0.00004   0.00022
 107        3PY         0.00022   0.00032  -0.00025  -0.00026   0.00014
 108        3PZ        -0.00013  -0.00069   0.00034   0.00020   0.00012
 109        4S         -0.00047  -0.01018   0.01027  -0.00452  -0.00059
 110        4PX        -0.00028  -0.00099   0.00089  -0.00195  -0.00091
 111        4PY         0.00022  -0.00162   0.00130  -0.00088  -0.00098
 112        4PZ         0.00034   0.00231  -0.00252   0.00177  -0.00023
 113 20  Cl 1S          0.98581   0.00007   0.01095   0.00001  -0.00004
 114        2S          0.05317   0.00000   0.00052  -0.00007   0.00008
 115        2PX         0.00015  -0.00000  -0.00001  -0.00006  -0.00005
 116        2PY        -0.00020   0.00000   0.00006  -0.00005  -0.00005
 117        2PZ         0.00000   0.00003  -0.00000  -0.00000  -0.00000
 118        3S         -0.02029   0.00000   0.00002   0.00242   0.00236
 119        3PX        -0.00063   0.00000   0.00005   0.00053   0.00049
 120        3PY         0.00082  -0.00000  -0.00031   0.00016   0.00028
 121        3PZ        -0.00000  -0.00013   0.00000   0.00000   0.00000
 122        4S          0.01605   0.00000   0.00061  -0.00650  -0.00658
 123        4PX         0.00239  -0.00000  -0.00002  -0.00356  -0.00347
 124        4PY        -0.00425  -0.00000  -0.00028   0.00223   0.00148
 125        4PZ         0.00000  -0.00041   0.00000  -0.00000  -0.00000
 126 21  Cl 1S         -0.00773   0.70176   0.69241   0.00000  -0.00001
 127        2S         -0.00046   0.03784   0.03726   0.00001   0.00001
 128        2PX         0.00001   0.00006   0.00005   0.00001  -0.00003
 129        2PY        -0.00005   0.00008   0.00006   0.00006  -0.00002
 130        2PZ        -0.00002   0.00016   0.00009   0.00005   0.00002
 131        3S          0.00044  -0.01414  -0.01357   0.00127   0.00032
 132        3PX        -0.00002  -0.00024  -0.00021   0.00004   0.00022
 133        3PY         0.00022  -0.00033  -0.00024  -0.00026   0.00014
 134        3PZ         0.00013  -0.00069  -0.00033  -0.00020  -0.00012
 135        4S         -0.00047   0.01031   0.01013  -0.00453  -0.00059
 136        4PX        -0.00028   0.00100   0.00088  -0.00196  -0.00091
 137        4PY         0.00022   0.00163   0.00128  -0.00088  -0.00098
 138        4PZ        -0.00034   0.00234   0.00249  -0.00177   0.00024
                           6         7         8         9        10
                           O         O         O         O         O
     Eigenvalues --   -11.29251 -11.26201 -11.25554 -11.25544 -11.21285
   1 1   C  1S          0.21871   0.00421   0.00227   0.00158   0.00155
   2        2S          0.01940  -0.00041  -0.00297  -0.00188  -0.00082
   3        2PX        -0.00049  -0.00107  -0.00145  -0.00114  -0.00059
   4        2PY         0.00118   0.00044  -0.00005  -0.00004  -0.00055
   5        2PZ        -0.00000  -0.00000  -0.00000  -0.00000   0.00000
   6        3S         -0.00446  -0.00765   0.02712   0.02189   0.00300
   7        3PX         0.00952  -0.00148   0.01504   0.01248   0.00248
   8        3PY        -0.01137   0.00530  -0.00372  -0.00509  -0.00176
   9        3PZ         0.00000  -0.00000   0.00000   0.00000  -0.00000
  10 2   C  1S         -0.00056  -0.02548   0.84417   0.51169   0.00184
  11        2S          0.00010  -0.00661   0.08607   0.05235  -0.00116
  12        2PX         0.00059  -0.00020  -0.00049  -0.00057  -0.00024
  13        2PY        -0.00017   0.00205  -0.00093   0.00027  -0.00089
  14        2PZ         0.00000  -0.00000   0.00000  -0.00000  -0.00000
  15        3S         -0.00884   0.03708  -0.07809  -0.05740   0.01422
  16        3PX         0.00564  -0.00044   0.00702   0.00797   0.00818
  17        3PY         0.00873  -0.02903   0.00740   0.00911   0.01816
  18        3PZ        -0.00000   0.00000  -0.00000  -0.00000  -0.00000
  19 3   C  1S         -0.00570   0.98671   0.00773   0.03499   0.00174
  20        2S         -0.00247   0.10024  -0.00060  -0.00180  -0.00040
  21        2PX         0.00087  -0.00148   0.00028   0.00124  -0.00022
  22        2PY         0.00057   0.00005  -0.00180   0.00034  -0.00086
  23        2PZ         0.00000   0.00000   0.00000   0.00000   0.00000
  24        3S          0.01360  -0.10168   0.01065   0.04118   0.00129
  25        3PX        -0.00853   0.02815  -0.00434  -0.01914  -0.00206
  26        3PY        -0.00391  -0.00093   0.01576  -0.00300   0.00532
  27        3PZ        -0.00000   0.00000  -0.00000  -0.00000  -0.00000
  28 4   C  1S         -0.00238  -0.02663  -0.51204   0.84393   0.00118
  29        2S         -0.00280  -0.00664  -0.05212   0.08627  -0.00042
  30        2PX         0.00210  -0.00029   0.00014  -0.00073  -0.00009
  31        2PY         0.00020  -0.00198  -0.00094   0.00025  -0.00050
  32        2PZ        -0.00000  -0.00000   0.00000  -0.00000  -0.00000
  33        3S          0.01393   0.03667   0.04274  -0.08781   0.00096
  34        3PX        -0.01640   0.00118  -0.00266   0.01068   0.00176
  35        3PY        -0.00674   0.02888   0.00216  -0.01207   0.00484
  36        3PZ         0.00000   0.00000   0.00000  -0.00000   0.00000
  37 5   C  1S          0.96216   0.00448  -0.00100   0.00193   0.00037
  38        2S          0.09423  -0.00044   0.00179  -0.00308  -0.00027
  39        2PX        -0.00011  -0.00108   0.00082  -0.00187  -0.00017
  40        2PY         0.00135  -0.00037  -0.00009   0.00016  -0.00018
  41        2PZ         0.00000  -0.00000   0.00000  -0.00000  -0.00000
  42        3S         -0.06096  -0.00754  -0.01387   0.03270   0.00089
  43        3PX        -0.00899  -0.00181  -0.00792   0.01981   0.00116
  44        3PY         0.00390  -0.00537   0.00000   0.00518  -0.00103
  45        3PZ        -0.00000   0.00000  -0.00000   0.00000   0.00000
  46 6   N  1S          0.00028  -0.00010   0.00005   0.00024  -0.00002
  47        2S          0.00150  -0.00081   0.00025   0.00128  -0.00027
  48        2PX        -0.00008  -0.00018   0.00007   0.00010  -0.00021
  49        2PY        -0.00018   0.00002  -0.00027   0.00002  -0.00013
  50        2PZ         0.00000   0.00000  -0.00000   0.00000  -0.00000
  51        3S         -0.00204   0.00632  -0.00219  -0.00913   0.00043
  52        3PX        -0.00162   0.00231  -0.00186  -0.00586   0.00072
  53        3PY         0.00181  -0.00013  -0.00093   0.00062   0.00006
  54        3PZ        -0.00000   0.00000   0.00000  -0.00000   0.00000
  55 7   H  1S          0.00020  -0.00239  -0.00016  -0.00061  -0.00009
  56        2S          0.00304   0.00539   0.00088   0.00354   0.00121
  57 8   H  1S          0.00070  -0.00038  -0.00039  -0.00006   0.00030
  58        2S          0.00974  -0.00020   0.00121   0.00203  -0.00011
  59 9   H  1S         -0.00141  -0.00036   0.00033  -0.00020  -0.00012
  60        2S          0.01165  -0.00044   0.00003   0.00258   0.00002
  61 10  C  1S         -0.00079  -0.00186  -0.00119  -0.00241   0.98701
  62        2S         -0.00037  -0.00101  -0.00091  -0.00143   0.10231
  63        2PX         0.00031  -0.00007   0.00055   0.00023   0.00004
  64        2PY         0.00037   0.00012   0.00000   0.00039  -0.00015
  65        2PZ        -0.00000   0.00000  -0.00000  -0.00000  -0.00000
  66        3S         -0.00321   0.00802   0.00865   0.00563  -0.08633
  67        3PX         0.00033  -0.00403  -0.00606  -0.00266   0.00361
  68        3PY         0.00136  -0.00227  -0.00410  -0.00392   0.00596
  69        3PZ        -0.00000  -0.00000   0.00000   0.00000  -0.00000
  70 11  H  1S          0.00006  -0.00018  -0.00071  -0.00073   0.00037
  71        2S          0.00011   0.00033   0.00224   0.00118   0.01452
  72 12  H  1S          0.00006  -0.00052  -0.00074  -0.00034   0.00031
  73        2S         -0.00039  -0.00028  -0.00149  -0.00017   0.01453
  74 13  H  1S          0.00006  -0.00018  -0.00071  -0.00073   0.00037
  75        2S          0.00011   0.00033   0.00224   0.00118   0.01451
  76 14  C  1S         -0.00167  -0.00181  -0.00010  -0.00261  -0.03336
  77        2S         -0.00095  -0.00100   0.00013  -0.00166  -0.00384
  78        2PX         0.00063  -0.00008  -0.00038   0.00043  -0.00007
  79        2PY        -0.00053  -0.00011  -0.00017  -0.00037  -0.00007
  80        2PZ         0.00000   0.00000   0.00000  -0.00000   0.00000
  81        3S         -0.00042   0.00799  -0.00514   0.00885   0.00493
  82        3PX         0.00148  -0.00390   0.00410  -0.00494  -0.00089
  83        3PY         0.00151   0.00249  -0.00203   0.00550   0.00103
  84        3PZ        -0.00001   0.00000  -0.00002   0.00002  -0.00000
  85 15  H  1S         -0.00009  -0.00018   0.00029  -0.00096  -0.00012
  86        2S         -0.00010   0.00033  -0.00146   0.00212  -0.00045
  87 16  H  1S         -0.00009  -0.00017   0.00029  -0.00096  -0.00012
  88        2S         -0.00009   0.00033  -0.00143   0.00209  -0.00044
  89 17  H  1S         -0.00003  -0.00052   0.00050  -0.00064  -0.00015
  90        2S          0.00103  -0.00026   0.00128  -0.00092  -0.00050
  91 18  B  1S         -0.00040  -0.00004  -0.00001  -0.00023  -0.00005
  92        2S         -0.00284  -0.00032  -0.00013  -0.00150  -0.00030
  93        2PX        -0.00127  -0.00007  -0.00016  -0.00040   0.00007
  94        2PY         0.00001  -0.00001  -0.00028   0.00013  -0.00008
  95        2PZ        -0.00000  -0.00000  -0.00000   0.00000  -0.00000
  96        3S          0.00604   0.00143  -0.00065   0.00219   0.00111
  97        3PX         0.00455   0.00069  -0.00018   0.00142   0.00053
  98        3PY        -0.00181   0.00029   0.00286  -0.00309  -0.00011
  99        3PZ         0.00000  -0.00000  -0.00000   0.00000   0.00000
 100 19  Cl 1S          0.00001   0.00000  -0.00000  -0.00000  -0.00000
 101        2S         -0.00000   0.00000  -0.00000   0.00001   0.00000
 102        2PX         0.00005   0.00000  -0.00001   0.00001  -0.00000
 103        2PY         0.00004   0.00000  -0.00001  -0.00000  -0.00000
 104        2PZ        -0.00001  -0.00000   0.00001  -0.00001  -0.00000
 105        3S          0.00025   0.00002  -0.00004   0.00021   0.00007
 106        3PX        -0.00029  -0.00000   0.00009  -0.00003   0.00001
 107        3PY        -0.00024  -0.00003   0.00009   0.00002   0.00001
 108        3PZ         0.00002   0.00001  -0.00003   0.00007   0.00002
 109        4S         -0.00153  -0.00014   0.00078  -0.00119  -0.00027
 110        4PX        -0.00070  -0.00012  -0.00002  -0.00029  -0.00014
 111        4PY         0.00030  -0.00003  -0.00024  -0.00006  -0.00009
 112        4PZ         0.00086   0.00005  -0.00053   0.00059   0.00009
 113 20  Cl 1S         -0.00001  -0.00001   0.00001   0.00002   0.00001
 114        2S          0.00001   0.00001  -0.00001  -0.00004  -0.00002
 115        2PX        -0.00004  -0.00001   0.00004   0.00002   0.00002
 116        2PY        -0.00003  -0.00000  -0.00001  -0.00002  -0.00001
 117        2PZ         0.00000  -0.00000   0.00000   0.00000   0.00000
 118        3S          0.00025   0.00026  -0.00026  -0.00094  -0.00027
 119        3PX         0.00033   0.00010  -0.00032  -0.00019  -0.00015
 120        3PY         0.00024   0.00002   0.00010   0.00016   0.00004
 121        3PZ        -0.00000   0.00000  -0.00000  -0.00000  -0.00000
 122        4S         -0.00007  -0.00064  -0.00070   0.00249   0.00033
 123        4PX        -0.00134  -0.00043   0.00050   0.00078   0.00028
 124        4PY        -0.00079   0.00018   0.00038  -0.00110  -0.00006
 125        4PZ         0.00000  -0.00000  -0.00000   0.00000   0.00000
 126 21  Cl 1S          0.00001   0.00000  -0.00000  -0.00000  -0.00000
 127        2S         -0.00000   0.00000  -0.00000   0.00001   0.00000
 128        2PX         0.00005   0.00000  -0.00001   0.00001  -0.00000
 129        2PY         0.00004   0.00000  -0.00001  -0.00000  -0.00000
 130        2PZ         0.00001   0.00000  -0.00001   0.00001   0.00000
 131        3S          0.00025   0.00002  -0.00004   0.00021   0.00007
 132        3PX        -0.00029  -0.00000   0.00009  -0.00003   0.00001
 133        3PY        -0.00024  -0.00003   0.00009   0.00002   0.00001
 134        3PZ        -0.00002  -0.00001   0.00003  -0.00007  -0.00002
 135        4S         -0.00153  -0.00014   0.00078  -0.00119  -0.00027
 136        4PX        -0.00070  -0.00012  -0.00002  -0.00029  -0.00014
 137        4PY         0.00030  -0.00003  -0.00024  -0.00006  -0.00009
 138        4PZ        -0.00086  -0.00005   0.00053  -0.00059  -0.00009
                          11        12        13        14        15
                           O         O         O         O         O
     Eigenvalues --   -11.21190 -10.46672 -10.45724 -10.45663  -7.92983
   1 1   C  1S          0.00045   0.00010  -0.00000  -0.00002  -0.00003
   2        2S         -0.00032   0.00199   0.00000   0.00023   0.00021
   3        2PX        -0.00018   0.00079   0.00000  -0.00014  -0.00094
   4        2PY         0.00016   0.00056   0.00000   0.00001   0.00013
   5        2PZ        -0.00000   0.00000  -0.00090   0.00000  -0.00000
   6        3S          0.00082  -0.01625  -0.00000   0.00026   0.00422
   7        3PX         0.00114  -0.00932  -0.00000   0.00183   0.00658
   8        3PY         0.00096  -0.00909  -0.00000  -0.00029  -0.00124
   9        3PZ        -0.00000  -0.00000   0.00278  -0.00000   0.00000
  10 2   C  1S          0.00130  -0.00010  -0.00000   0.00002   0.00008
  11        2S         -0.00052  -0.00121   0.00000   0.00018   0.00053
  12        2PX        -0.00008   0.00023  -0.00000  -0.00018  -0.00016
  13        2PY         0.00045  -0.00033  -0.00000  -0.00010  -0.00013
  14        2PZ        -0.00000  -0.00000   0.00019  -0.00000   0.00000
  15        3S          0.00219   0.01260   0.00000  -0.00170  -0.00573
  16        3PX         0.00186  -0.00949   0.00000   0.00206   0.00519
  17        3PY        -0.00379   0.00318   0.00000   0.00178   0.00190
  18        3PZ         0.00000  -0.00000  -0.00122   0.00000  -0.00000
  19 3   C  1S          0.00180   0.00001  -0.00000  -0.00004  -0.00001
  20        2S         -0.00042   0.00022  -0.00000  -0.00018  -0.00003
  21        2PX        -0.00018  -0.00034  -0.00000  -0.00011   0.00002
  22        2PY         0.00080   0.00005  -0.00000  -0.00004   0.00014
  23        2PZ         0.00000  -0.00000   0.00003  -0.00000  -0.00000
  24        3S          0.00119   0.00089   0.00001   0.00455   0.00060
  25        3PX        -0.00247   0.00510  -0.00000  -0.00235  -0.00177
  26        3PY        -0.00475   0.00165  -0.00000  -0.00166  -0.00063
  27        3PZ        -0.00001   0.00000  -0.00033   0.00000  -0.00000
  28 4   C  1S          0.00184  -0.00010  -0.00000   0.00002   0.00001
  29        2S         -0.00117  -0.00091  -0.00000   0.00010   0.00009
  30        2PX        -0.00020   0.00007   0.00000  -0.00009  -0.00008
  31        2PY         0.00087   0.00012   0.00000   0.00042  -0.00007
  32        2PZ        -0.00000   0.00000  -0.00040   0.00000  -0.00000
  33        3S          0.01408   0.01285   0.00001  -0.00032  -0.00176
  34        3PX         0.00766  -0.00721  -0.00001  -0.00093   0.00042
  35        3PY        -0.01835   0.00201  -0.00001  -0.00634   0.00023
  36        3PZ         0.00000  -0.00000   0.00227  -0.00000   0.00000
  37 5   C  1S          0.00152   0.00001   0.00000   0.00008   0.00005
  38        2S         -0.00080  -0.00010   0.00000  -0.00015   0.00023
  39        2PX        -0.00062   0.00096   0.00000   0.00059   0.00006
  40        2PY         0.00059  -0.00030  -0.00000  -0.00047   0.00001
  41        2PZ         0.00000  -0.00000   0.00128  -0.00000   0.00000
  42        3S          0.00326  -0.00717  -0.00001  -0.00165  -0.00158
  43        3PX         0.00320  -0.01166  -0.00001  -0.00139   0.00148
  44        3PY         0.00159   0.00148   0.00001   0.00661  -0.00280
  45        3PZ        -0.00001  -0.00000  -0.00382   0.00000  -0.00000
  46 6   N  1S         -0.00002   0.00022   0.00000   0.00022   0.00000
  47        2S         -0.00025   0.00160   0.00000   0.00105   0.00020
  48        2PX        -0.00023  -0.00013   0.00000   0.00025  -0.00041
  49        2PY         0.00011   0.00032  -0.00000  -0.00003   0.00046
  50        2PZ        -0.00000  -0.00000  -0.00006  -0.00000  -0.00000
  51        3S          0.00035  -0.00936  -0.00002  -0.00964   0.00113
  52        3PX         0.00089   0.00214   0.00000   0.00180   0.00149
  53        3PY         0.00008  -0.00355   0.00001   0.00277  -0.00165
  54        3PZ         0.00000   0.00000   0.00256  -0.00000   0.00000
  55 7   H  1S         -0.00010  -0.00065  -0.00000   0.00004   0.00018
  56        2S          0.00129  -0.00192  -0.00000   0.00049   0.00056
  57 8   H  1S         -0.00012  -0.00181  -0.00000   0.00015   0.00025
  58        2S          0.00000   0.01304   0.00000   0.00096   0.00108
  59 9   H  1S          0.00031  -0.00112  -0.00000  -0.00158   0.00019
  60        2S         -0.00004   0.00250   0.00001   0.00597  -0.00186
  61 10  C  1S          0.03324   0.00005   0.00000   0.00002   0.00003
  62        2S          0.00306  -0.00018   0.00000   0.00010   0.00020
  63        2PX        -0.00006   0.00015   0.00000  -0.00001   0.00000
  64        2PY         0.00006   0.00008   0.00000   0.00006  -0.00000
  65        2PZ         0.00000  -0.00000   0.00000  -0.00000  -0.00000
  66        3S         -0.00084  -0.00012  -0.00000  -0.00120  -0.00162
  67        3PX        -0.00069   0.00141   0.00000   0.00034  -0.00012
  68        3PY        -0.00060   0.00008   0.00000   0.00057   0.00116
  69        3PZ        -0.00000   0.00000   0.00027  -0.00000   0.00000
  70 11  H  1S         -0.00010  -0.00006   0.00008   0.00003   0.00009
  71        2S          0.00053  -0.00024  -0.00006   0.00000   0.00010
  72 12  H  1S         -0.00013   0.00047   0.00000   0.00009   0.00003
  73        2S          0.00048  -0.00070  -0.00000  -0.00013  -0.00043
  74 13  H  1S         -0.00009  -0.00006  -0.00008   0.00003   0.00009
  75        2S          0.00053  -0.00024   0.00006   0.00000   0.00010
  76 14  C  1S          0.98701   0.00001   0.00000   0.00005   0.00000
  77        2S          0.10230  -0.00018   0.00000   0.00015   0.00007
  78        2PX         0.00004   0.00004  -0.00000   0.00013  -0.00005
  79        2PY         0.00016  -0.00008  -0.00000  -0.00012   0.00004
  80        2PZ        -0.00000   0.00000   0.00003  -0.00000  -0.00000
  81        3S         -0.08629   0.00099  -0.00001  -0.00275   0.00009
  82        3PX         0.00320   0.00067   0.00001   0.00097   0.00007
  83        3PY        -0.00620   0.00088   0.00000  -0.00127   0.00008
  84        3PZ        -0.00000  -0.00000  -0.00068   0.00000   0.00000
  85 15  H  1S          0.00037  -0.00008  -0.00013   0.00008  -0.00000
  86        2S          0.01453  -0.00013  -0.00004  -0.00005  -0.00002
  87 16  H  1S          0.00037  -0.00008   0.00013   0.00008  -0.00000
  88        2S          0.01452  -0.00012   0.00003  -0.00005  -0.00003
  89 17  H  1S          0.00030   0.00013   0.00000   0.00026  -0.00000
  90        2S          0.01449   0.00032   0.00001  -0.00036   0.00008
  91 18  B  1S         -0.00008  -0.00051  -0.00000  -0.00151   0.00028
  92        2S         -0.00050  -0.00305  -0.00001  -0.01014  -0.00135
  93        2PX         0.00006   0.00214   0.00000   0.00087  -0.00071
  94        2PY         0.00016  -0.00093  -0.00000   0.00004   0.00100
  95        2PZ        -0.00000   0.00000   0.00065  -0.00000  -0.00000
  96        3S          0.00181   0.03035   0.00008   0.05454  -0.00493
  97        3PX         0.00079  -0.01250  -0.00002  -0.00765   0.00432
  98        3PY        -0.00123   0.03067  -0.00003  -0.01429  -0.00836
  99        3PZ        -0.00000  -0.00001  -0.02896   0.00005   0.00000
 100 19  Cl 1S          0.00000   0.00778   0.21595  -0.21656   0.00007
 101        2S          0.00000  -0.02489  -0.69375   0.69593  -0.00031
 102        2PX         0.00001  -0.00010  -0.00206   0.00209   0.00011
 103        2PY        -0.00000   0.00007  -0.00255   0.00261   0.00659
 104        2PZ        -0.00001   0.00008   0.00435  -0.00464  -0.00360
 105        3S          0.00010  -0.00509  -0.10357   0.10201   0.00200
 106        3PX        -0.00005   0.00006  -0.00173   0.00158  -0.00000
 107        3PY         0.00001  -0.00117  -0.00236   0.00187   0.00139
 108        3PZ         0.00004   0.00078   0.00471  -0.00286  -0.00070
 109        4S         -0.00065   0.00374   0.05980  -0.06053  -0.00371
 110        4PX        -0.00015   0.00170   0.00583  -0.00523  -0.00068
 111        4PY        -0.00009  -0.00142   0.00951  -0.00769  -0.00192
 112        4PZ         0.00032  -0.00214  -0.01342   0.01513   0.00184
 113 20  Cl 1S          0.00001  -0.30567  -0.00002  -0.01110  -0.00310
 114        2S         -0.00001   0.98198   0.00005   0.03588   0.01077
 115        2PX         0.00000   0.00419   0.00000   0.00019  -0.35940
 116        2PY        -0.00001  -0.00697  -0.00000  -0.00050   0.90437
 117        2PZ         0.00000   0.00000  -0.00010   0.00000  -0.00023
 118        3S         -0.00021   0.14905   0.00001   0.00419  -0.00696
 119        3PX        -0.00003   0.00431  -0.00000  -0.00012  -0.03092
 120        3PY         0.00006  -0.00606   0.00000   0.00145   0.07717
 121        3PZ        -0.00000   0.00000   0.00063  -0.00000  -0.00002
 122        4S          0.00061  -0.09369  -0.00001  -0.00602   0.01428
 123        4PX         0.00008  -0.01378  -0.00000  -0.00024   0.01250
 124        4PY        -0.00028   0.02489   0.00001   0.00252  -0.03069
 125        4PZ         0.00000  -0.00001   0.00261  -0.00000   0.00001
 126 21  Cl 1S          0.00000   0.00778  -0.21664  -0.21586   0.00007
 127        2S          0.00000  -0.02488   0.69597   0.69371  -0.00031
 128        2PX         0.00001  -0.00010   0.00207   0.00208   0.00011
 129        2PY        -0.00000   0.00007   0.00256   0.00261   0.00660
 130        2PZ         0.00001  -0.00008   0.00437   0.00463   0.00360
 131        3S          0.00010  -0.00509   0.10389   0.10168   0.00200
 132        3PX        -0.00005   0.00006   0.00174   0.00157  -0.00000
 133        3PY         0.00001  -0.00117   0.00237   0.00187   0.00139
 134        3PZ        -0.00004  -0.00078   0.00472   0.00285   0.00070
 135        4S         -0.00066   0.00373  -0.05999  -0.06033  -0.00371
 136        4PX        -0.00015   0.00170  -0.00584  -0.00521  -0.00068
 137        4PY        -0.00009  -0.00142  -0.00954  -0.00767  -0.00192
 138        4PZ        -0.00032   0.00214  -0.01347  -0.01508  -0.00183
                          16        17        18        19        20
                           O         O         O         O         O
     Eigenvalues --    -7.92654  -7.92622  -7.92028  -7.92016  -7.91684
   1 1   C  1S          0.00014   0.00000  -0.00000   0.00005   0.00002
   2        2S          0.00094   0.00000  -0.00000   0.00026   0.00019
   3        2PX         0.00068  -0.00000  -0.00000   0.00019  -0.00001
   4        2PY         0.00045   0.00000  -0.00000   0.00003  -0.00007
   5        2PZ         0.00000  -0.00021  -0.00024  -0.00000   0.00000
   6        3S         -0.01030  -0.00000   0.00004  -0.00454  -0.00074
   7        3PX        -0.00623   0.00000   0.00002  -0.00254   0.00140
   8        3PY        -0.00692  -0.00000  -0.00002   0.00283   0.00082
   9        3PZ        -0.00000   0.00103   0.00149   0.00001   0.00000
  10 2   C  1S         -0.00009   0.00000   0.00000  -0.00005  -0.00000
  11        2S         -0.00058   0.00000   0.00000  -0.00026  -0.00001
  12        2PX         0.00000   0.00000   0.00000  -0.00000  -0.00002
  13        2PY        -0.00018  -0.00000  -0.00000   0.00013   0.00003
  14        2PZ        -0.00000   0.00010   0.00007   0.00000  -0.00001
  15        3S          0.00644  -0.00000  -0.00002   0.00295   0.00005
  16        3PX        -0.00586   0.00000   0.00002  -0.00281   0.00095
  17        3PY         0.00349   0.00000   0.00002  -0.00199  -0.00074
  18        3PZ        -0.00000  -0.00061  -0.00061  -0.00000   0.00003
  19 3   C  1S          0.00002  -0.00000  -0.00000   0.00003  -0.00001
  20        2S          0.00015  -0.00000  -0.00000   0.00016  -0.00001
  21        2PX        -0.00014  -0.00000  -0.00000   0.00003  -0.00008
  22        2PY        -0.00004   0.00000   0.00000  -0.00011  -0.00001
  23        2PZ         0.00000  -0.00002  -0.00001  -0.00000   0.00000
  24        3S          0.00009   0.00000   0.00003  -0.00319   0.00150
  25        3PX         0.00157   0.00000  -0.00001   0.00127  -0.00002
  26        3PY         0.00319  -0.00000  -0.00001   0.00167  -0.00186
  27        3PZ        -0.00000   0.00021   0.00000  -0.00000  -0.00004
  28 4   C  1S         -0.00000  -0.00000  -0.00000   0.00002  -0.00003
  29        2S          0.00003  -0.00000  -0.00000   0.00022  -0.00018
  30        2PX        -0.00004   0.00000   0.00000  -0.00009  -0.00006
  31        2PY        -0.00007   0.00000   0.00000  -0.00011   0.00022
  32        2PZ        -0.00000  -0.00001  -0.00014  -0.00000  -0.00002
  33        3S          0.00016   0.00000   0.00002  -0.00208   0.00365
  34        3PX         0.00238  -0.00000  -0.00003   0.00361  -0.00325
  35        3PY         0.00230   0.00000  -0.00002   0.00266  -0.00350
  36        3PZ         0.00000  -0.00002   0.00069   0.00001   0.00013
  37 5   C  1S          0.00002  -0.00000  -0.00000   0.00001  -0.00002
  38        2S          0.00037  -0.00000  -0.00000   0.00047  -0.00041
  39        2PX        -0.00034   0.00000   0.00001  -0.00093   0.00080
  40        2PY         0.00030   0.00000  -0.00000   0.00029  -0.00037
  41        2PZ        -0.00000   0.00013   0.00045   0.00000   0.00007
  42        3S          0.00017  -0.00000  -0.00002   0.00177  -0.00291
  43        3PX         0.00280  -0.00000  -0.00004   0.00479  -0.00534
  44        3PY        -0.00216  -0.00000   0.00003  -0.00354   0.00612
  45        3PZ         0.00000  -0.00007  -0.00099  -0.00001  -0.00021
  46 6   N  1S          0.00010  -0.00000  -0.00000   0.00005   0.00006
  47        2S          0.00062   0.00000  -0.00001   0.00077   0.00028
  48        2PX         0.00010   0.00000   0.00001  -0.00085   0.00015
  49        2PY        -0.00011   0.00000   0.00000  -0.00034  -0.00008
  50        2PZ         0.00000   0.00034   0.00051   0.00000   0.00002
  51        3S         -0.00456   0.00000  -0.00001   0.00136  -0.00438
  52        3PX         0.00013  -0.00000  -0.00004   0.00436  -0.00080
  53        3PY        -0.00151  -0.00000  -0.00001   0.00068   0.00253
  54        3PZ        -0.00000  -0.00183  -0.00136  -0.00001  -0.00005
  55 7   H  1S         -0.00018  -0.00000  -0.00000   0.00003  -0.00009
  56        2S         -0.00056  -0.00000   0.00000  -0.00022  -0.00011
  57 8   H  1S         -0.00091   0.00000   0.00000  -0.00030   0.00008
  58        2S          0.01056   0.00000   0.00001  -0.00093   0.00002
  59 9   H  1S          0.00016  -0.00000  -0.00000   0.00049  -0.00168
  60        2S         -0.00074  -0.00000   0.00002  -0.00204   0.00665
  61 10  C  1S          0.00001   0.00000   0.00000  -0.00001  -0.00000
  62        2S         -0.00007   0.00000   0.00000  -0.00003  -0.00002
  63        2PX         0.00010   0.00000   0.00000  -0.00005  -0.00003
  64        2PY         0.00002  -0.00000   0.00000  -0.00008   0.00001
  65        2PZ        -0.00000  -0.00001   0.00001   0.00000   0.00000
  66        3S         -0.00044  -0.00000  -0.00001   0.00122   0.00013
  67        3PX         0.00100   0.00000  -0.00000  -0.00001  -0.00007
  68        3PY         0.00047   0.00000   0.00000  -0.00054   0.00001
  69        3PZ         0.00000   0.00018   0.00009   0.00000  -0.00002
  70 11  H  1S         -0.00002   0.00003   0.00003  -0.00004  -0.00001
  71        2S         -0.00017   0.00002  -0.00004  -0.00007   0.00000
  72 12  H  1S          0.00036   0.00000  -0.00000   0.00001   0.00001
  73        2S         -0.00080  -0.00000  -0.00000   0.00002  -0.00007
  74 13  H  1S         -0.00002  -0.00003  -0.00003  -0.00004  -0.00001
  75        2S         -0.00017  -0.00002   0.00004  -0.00007   0.00002
  76 14  C  1S         -0.00001  -0.00000   0.00000  -0.00000   0.00001
  77        2S         -0.00003  -0.00000  -0.00000   0.00005  -0.00003
  78        2PX        -0.00005  -0.00000   0.00000  -0.00008   0.00010
  79        2PY         0.00002  -0.00000  -0.00000   0.00008  -0.00006
  80        2PZ        -0.00000   0.00000   0.00002   0.00000   0.00000
  81        3S          0.00054   0.00000  -0.00000   0.00057  -0.00104
  82        3PX        -0.00044   0.00000   0.00001  -0.00068   0.00067
  83        3PY        -0.00000   0.00000   0.00000  -0.00015  -0.00064
  84        3PZ         0.00000   0.00000  -0.00026  -0.00000  -0.00004
  85 15  H  1S         -0.00001  -0.00000  -0.00005   0.00001   0.00001
  86        2S          0.00006   0.00001  -0.00003   0.00009  -0.00009
  87 16  H  1S         -0.00001   0.00000   0.00005   0.00001   0.00002
  88        2S          0.00006  -0.00001   0.00003   0.00009  -0.00007
  89 17  H  1S         -0.00004  -0.00000   0.00000  -0.00009   0.00023
  90        2S         -0.00018   0.00000   0.00000  -0.00025  -0.00049
  91 18  B  1S          0.00033   0.00000  -0.00001   0.00094   0.00072
  92        2S          0.00055   0.00000   0.00001  -0.00103   0.00169
  93        2PX        -0.00065   0.00000  -0.00000   0.00006  -0.00080
  94        2PY         0.00056  -0.00000   0.00000  -0.00001  -0.00003
  95        2PZ        -0.00000  -0.00110   0.00102   0.00001  -0.00003
  96        3S          0.00044  -0.00000   0.00005  -0.00680  -0.00367
  97        3PX         0.00608  -0.00000  -0.00003   0.00388   0.00575
  98        3PY        -0.00029   0.00000  -0.00001   0.00106  -0.00103
  99        3PZ        -0.00000   0.00781  -0.00957  -0.00008   0.00017
 100 19  Cl 1S          0.00001  -0.00004  -0.00214  -0.00210   0.00020
 101        2S         -0.00007   0.00020   0.00748   0.00724  -0.00070
 102        2PX        -0.00427   0.00208  -0.18157  -0.19224   0.52393
 103        2PY         0.00332  -0.01021  -0.33656  -0.35176  -0.36901
 104        2PZ        -0.00057   0.00235   0.56525   0.56630  -0.05167
 105        3S          0.00043  -0.00056  -0.00594  -0.00286   0.00001
 106        3PX        -0.00059   0.00039  -0.01561  -0.01651   0.04312
 107        3PY         0.00060  -0.00162  -0.02869  -0.02992  -0.03018
 108        3PZ        -0.00011   0.00037   0.04878   0.04769  -0.00427
 109        4S         -0.00012  -0.00190   0.01173   0.00522   0.00112
 110        4PX        -0.00014  -0.00134   0.00661   0.00591  -0.01456
 111        4PY        -0.00066   0.00088   0.01175   0.01118   0.01009
 112        4PZ        -0.00021   0.00054  -0.02042  -0.01643   0.00049
 113 20  Cl 1S          0.00056  -0.00000  -0.00000   0.00004   0.00004
 114        2S         -0.00198   0.00000   0.00000  -0.00022  -0.00024
 115        2PX         0.90506  -0.00014   0.00002  -0.00209   0.00531
 116        2PY         0.35976   0.00020  -0.00008   0.00914   0.00761
 117        2PZ         0.00005   0.97411  -0.00932  -0.00008   0.00080
 118        3S          0.00179   0.00000  -0.00002   0.00216   0.00158
 119        3PX         0.07517  -0.00001  -0.00000   0.00003   0.00019
 120        3PY         0.02951   0.00002   0.00000  -0.00024  -0.00027
 121        3PZ         0.00000   0.07950  -0.00014  -0.00000   0.00000
 122        4S         -0.00161  -0.00000   0.00002  -0.00219  -0.00043
 123        4PX        -0.02644   0.00000   0.00000  -0.00053   0.00017
 124        4PY        -0.01022  -0.00001  -0.00001   0.00167   0.00065
 125        4PZ        -0.00000  -0.02592  -0.00045  -0.00000   0.00011
 126 21  Cl 1S          0.00001   0.00004   0.00217  -0.00206   0.00023
 127        2S         -0.00007  -0.00020  -0.00759   0.00712  -0.00079
 128        2PX        -0.00427  -0.00208   0.18471  -0.18931   0.58269
 129        2PY         0.00333   0.01021   0.34254  -0.34653  -0.43658
 130        2PZ         0.00057   0.00235   0.57421  -0.55681   0.07324
 131        3S          0.00043   0.00056   0.00598  -0.00276   0.00007
 132        3PX        -0.00059  -0.00039   0.01588  -0.01625   0.04792
 133        3PY         0.00060   0.00162   0.02920  -0.02947  -0.03571
 134        3PZ         0.00011   0.00037   0.04954  -0.04687   0.00608
 135        4S         -0.00012   0.00190  -0.01181   0.00503   0.00115
 136        4PX        -0.00014   0.00134  -0.00671   0.00581  -0.01602
 137        4PY        -0.00066  -0.00088  -0.01194   0.01100   0.01189
 138        4PZ         0.00021   0.00054  -0.02068   0.01609  -0.00111
                          21        22        23        24        25
                           O         O         O         O         O
     Eigenvalues --    -7.91683  -7.91676  -7.91660  -7.71391  -1.37727
   1 1   C  1S         -0.00000  -0.00000   0.00002  -0.00012  -0.09402
   2        2S         -0.00001  -0.00000   0.00027  -0.00175   0.10942
   3        2PX         0.00000   0.00000  -0.00051   0.00197  -0.02240
   4        2PY         0.00000  -0.00000   0.00003   0.00082  -0.08608
   5        2PZ         0.00004   0.00002   0.00000  -0.00000   0.00000
   6        3S          0.00005  -0.00001   0.00179  -0.00500   0.07012
   7        3PX        -0.00010  -0.00002   0.00537  -0.01784  -0.02137
   8        3PY        -0.00005   0.00001  -0.00066  -0.00126   0.08184
   9        3PZ         0.00001  -0.00051  -0.00000   0.00000  -0.00000
  10 2   C  1S         -0.00000  -0.00000   0.00005  -0.00017  -0.04106
  11        2S          0.00000  -0.00000   0.00031  -0.00094   0.03954
  12        2PX         0.00000   0.00000  -0.00005  -0.00011  -0.02945
  13        2PY        -0.00000   0.00000  -0.00004  -0.00049  -0.01757
  14        2PZ        -0.00008   0.00001   0.00000   0.00000  -0.00000
  15        3S          0.00000   0.00002  -0.00410   0.01466   0.13596
  16        3PX        -0.00007  -0.00002   0.00353  -0.00942  -0.03736
  17        3PY         0.00005  -0.00001   0.00086   0.00202  -0.09766
  18        3PZ         0.00041   0.00004   0.00000  -0.00000   0.00000
  19 3   C  1S          0.00000   0.00000  -0.00001  -0.00006  -0.02842
  20        2S          0.00000   0.00000  -0.00008  -0.00044   0.03886
  21        2PX         0.00001  -0.00000   0.00005  -0.00016  -0.02495
  22        2PY         0.00000  -0.00000   0.00009   0.00004   0.00088
  23        2PZ         0.00003  -0.00001   0.00000  -0.00000  -0.00000
  24        3S         -0.00010   0.00000   0.00067   0.00497  -0.06703
  25        3PX         0.00000   0.00001  -0.00125   0.00254   0.05989
  26        3PY         0.00012  -0.00000  -0.00081  -0.00123  -0.00277
  27        3PZ        -0.00066   0.00023   0.00000   0.00000   0.00001
  28 4   C  1S          0.00000  -0.00000   0.00001  -0.00021  -0.04095
  29        2S          0.00001  -0.00000   0.00007  -0.00117   0.03933
  30        2PX         0.00000  -0.00000  -0.00006  -0.00012  -0.02846
  31        2PY        -0.00001   0.00000  -0.00001   0.00052   0.01923
  32        2PZ        -0.00031   0.00015   0.00000  -0.00000  -0.00000
  33        3S         -0.00024   0.00001   0.00020   0.01824   0.13533
  34        3PX         0.00021  -0.00000  -0.00093  -0.01337  -0.03318
  35        3PY         0.00023  -0.00001  -0.00018  -0.00274   0.09741
  36        3PZ         0.00193  -0.00090  -0.00000   0.00000  -0.00001
  37 5   C  1S          0.00000   0.00000  -0.00005  -0.00013  -0.09279
  38        2S          0.00003   0.00000  -0.00077  -0.00146   0.10910
  39        2PX        -0.00005   0.00000   0.00051   0.00196  -0.01701
  40        2PY         0.00002  -0.00000   0.00007  -0.00092   0.08524
  41        2PZ         0.00094  -0.00056  -0.00000   0.00000  -0.00001
  42        3S          0.00019  -0.00002   0.00154  -0.00692   0.06231
  43        3PX         0.00036  -0.00000  -0.00290  -0.02358  -0.02433
  44        3PY        -0.00041   0.00003  -0.00129   0.00506  -0.07588
  45        3PZ        -0.00304   0.00146   0.00000  -0.00000   0.00001
  46 6   N  1S         -0.00000   0.00000   0.00000  -0.00000  -0.19160
  47        2S         -0.00002   0.00000  -0.00011   0.00048   0.16198
  48        2PX        -0.00001   0.00000   0.00005  -0.00123   0.06493
  49        2PY         0.00001  -0.00000   0.00022  -0.00010  -0.00160
  50        2PZ         0.00026  -0.00034  -0.00000  -0.00000   0.00001
  51        3S          0.00029  -0.00001  -0.00120  -0.00013   0.65869
  52        3PX         0.00005  -0.00001   0.00024   0.00377   0.10010
  53        3PY        -0.00017   0.00001  -0.00047   0.00087  -0.00389
  54        3PZ        -0.00076   0.00059   0.00000   0.00000   0.00001
  55 7   H  1S          0.00001  -0.00000   0.00011  -0.00055   0.00596
  56        2S          0.00001  -0.00000   0.00041  -0.00111  -0.01897
  57 8   H  1S         -0.00001  -0.00000   0.00044  -0.00150   0.02424
  58        2S         -0.00000  -0.00000   0.00068  -0.00181  -0.04284
  59 9   H  1S          0.00011  -0.00001  -0.00002  -0.00175   0.02393
  60        2S         -0.00044   0.00004  -0.00258   0.00083  -0.03563
  61 10  C  1S          0.00000  -0.00000   0.00001   0.00002  -0.00655
  62        2S          0.00000  -0.00000   0.00008  -0.00002   0.00563
  63        2PX         0.00000  -0.00000  -0.00001   0.00015  -0.00612
  64        2PY        -0.00000   0.00000  -0.00000   0.00025  -0.00715
  65        2PZ         0.00003  -0.00002  -0.00000   0.00000   0.00000
  66        3S         -0.00001   0.00000  -0.00078  -0.00114   0.05059
  67        3PX         0.00000   0.00000  -0.00016   0.00154  -0.00670
  68        3PY        -0.00000  -0.00000   0.00064  -0.00114  -0.01246
  69        3PZ        -0.00025   0.00007   0.00000  -0.00000   0.00000
  70 11  H  1S         -0.00001  -0.00000   0.00004  -0.00001   0.00112
  71        2S         -0.00011   0.00006   0.00006  -0.00016  -0.00291
  72 12  H  1S         -0.00000   0.00000   0.00000   0.00006   0.00228
  73        2S          0.00001   0.00000  -0.00029   0.00159  -0.00298
  74 13  H  1S          0.00002   0.00000   0.00004  -0.00001   0.00112
  75        2S          0.00011  -0.00006   0.00006  -0.00016  -0.00291
  76 14  C  1S         -0.00000   0.00000  -0.00000   0.00002  -0.00650
  77        2S          0.00000  -0.00000   0.00001  -0.00008   0.00558
  78        2PX        -0.00001   0.00000   0.00000   0.00018  -0.00566
  79        2PY         0.00000  -0.00000  -0.00001  -0.00027   0.00747
  80        2PZ         0.00004  -0.00002   0.00000   0.00000  -0.00000
  81        3S          0.00007  -0.00000  -0.00004  -0.00110   0.05018
  82        3PX        -0.00004   0.00000   0.00011   0.00206  -0.00570
  83        3PY         0.00005  -0.00001   0.00029   0.00115   0.01232
  84        3PZ        -0.00066   0.00030  -0.00000  -0.00001   0.00003
  85 15  H  1S         -0.00011   0.00005   0.00000  -0.00003   0.00111
  86        2S         -0.00010   0.00004  -0.00001  -0.00025  -0.00295
  87 16  H  1S          0.00010  -0.00005   0.00000  -0.00003   0.00111
  88        2S          0.00011  -0.00004  -0.00001  -0.00025  -0.00299
  89 17  H  1S         -0.00002   0.00000  -0.00006   0.00017   0.00238
  90        2S          0.00004  -0.00001   0.00039   0.00152  -0.00356
  91 18  B  1S         -0.00005   0.00000  -0.00011   0.99035  -0.02695
  92        2S         -0.00011   0.00001  -0.00028   0.10399   0.04300
  93        2PX         0.00005   0.00000  -0.00090   0.00321   0.03937
  94        2PY         0.00000   0.00001  -0.00137  -0.00103   0.00098
  95        2PZ        -0.00056  -0.00086  -0.00001   0.00000  -0.00000
  96        3S          0.00024  -0.00002   0.00031  -0.09097   0.00263
  97        3PX        -0.00039  -0.00001   0.00562  -0.00053  -0.02041
  98        3PY         0.00006  -0.00005   0.00901   0.01141  -0.00724
  99        3PZ         0.00285   0.00608   0.00004  -0.00001  -0.00000
 100 19  Cl 1S         -0.00019   0.00014   0.00007  -0.00013   0.00233
 101        2S          0.00069  -0.00046  -0.00027   0.00057  -0.01352
 102        2PX        -0.44568   0.52304   0.36356   0.00006  -0.00253
 103        2PY         0.54908   0.28687   0.43759   0.00106  -0.00169
 104        2PZ         0.18380   0.33880   0.39545  -0.00114   0.00293
 105        3S         -0.00048  -0.00009   0.00032  -0.00639   0.01583
 106        3PX        -0.03647   0.04286   0.02956   0.00023   0.00461
 107        3PY         0.04495   0.02364   0.03556  -0.00045   0.00370
 108        3PZ         0.01537   0.02809   0.03173   0.00027  -0.00601
 109        4S         -0.00042  -0.00195   0.00202   0.02615   0.01163
 110        4PX         0.01115  -0.01417  -0.00912   0.00323   0.00792
 111        4PY        -0.01470  -0.00885  -0.01080   0.00582   0.00021
 112        4PZ        -0.00513  -0.00892  -0.01060  -0.01125  -0.00081
 113 20  Cl 1S         -0.00000   0.00000  -0.00001  -0.00006   0.00226
 114        2S          0.00002  -0.00000   0.00009   0.00026  -0.01318
 115        2PX        -0.00036   0.00001   0.00179  -0.00001  -0.00251
 116        2PY        -0.00050   0.00005  -0.00274  -0.00116   0.00286
 117        2PZ         0.01218   0.00227   0.00003   0.00000  -0.00000
 118        3S         -0.00010   0.00001  -0.00033  -0.00251   0.01085
 119        3PX        -0.00001   0.00000   0.00008   0.00060   0.00321
 120        3PY         0.00002  -0.00000   0.00019   0.00002  -0.00587
 121        3PZ         0.00002   0.00009   0.00000   0.00000   0.00000
 122        4S          0.00003   0.00001  -0.00234   0.01331   0.02346
 123        4PX        -0.00001   0.00001  -0.00179   0.00064   0.01547
 124        4PY        -0.00004   0.00000   0.00025  -0.00648  -0.00285
 125        4PZ         0.00167  -0.00070  -0.00000   0.00000   0.00000
 126 21  Cl 1S          0.00017  -0.00014   0.00007  -0.00013   0.00233
 127        2S         -0.00059   0.00046  -0.00027   0.00057  -0.01352
 128        2PX         0.37077  -0.52263   0.35876   0.00006  -0.00253
 129        2PY        -0.49620  -0.29471   0.43285   0.00106  -0.00169
 130        2PZ         0.17668   0.34386  -0.39145   0.00113  -0.00293
 131        3S          0.00047   0.00008   0.00032  -0.00639   0.01583
 132        3PX         0.03030  -0.04282   0.02917   0.00023   0.00461
 133        3PY        -0.04063  -0.02428   0.03517  -0.00045   0.00370
 134        3PZ         0.01478   0.02850  -0.03140  -0.00027   0.00601
 135        4S          0.00027   0.00193   0.00204   0.02614   0.01163
 136        4PX        -0.00908   0.01415  -0.00898   0.00323   0.00792
 137        4PY         0.01325   0.00905  -0.01066   0.00582   0.00021
 138        4PZ        -0.00506  -0.00905   0.01050   0.01124   0.00081
                          26        27        28        29        30
                           O         O         O         O         O
     Eigenvalues --    -1.18680  -1.14138  -1.10661  -1.05903  -1.04835
   1 1   C  1S         -0.01510   0.10592   0.01418  -0.02328  -0.00000
   2        2S          0.02138  -0.11855  -0.01497   0.02381   0.00000
   3        2PX         0.09030  -0.04229   0.01014  -0.03217  -0.00000
   4        2PY         0.02755   0.00388   0.02787  -0.00982  -0.00000
   5        2PZ         0.00000  -0.00000   0.00000  -0.00000   0.00284
   6        3S          0.02779  -0.21395  -0.01526   0.06449   0.00001
   7        3PX         0.00613  -0.03546   0.01086  -0.00230   0.00000
   8        3PY        -0.02163  -0.01227   0.00424   0.00858  -0.00000
   9        3PZ         0.00000   0.00000  -0.00000   0.00000   0.00404
  10 2   C  1S         -0.11329   0.10971  -0.01904   0.02303   0.00000
  11        2S          0.12518  -0.11762   0.02205  -0.02383  -0.00000
  12        2PX         0.01235   0.03926   0.01920  -0.02076  -0.00000
  13        2PY        -0.05192  -0.01789  -0.00349  -0.01012  -0.00000
  14        2PZ         0.00000   0.00000   0.00000  -0.00000   0.00074
  15        3S          0.21997  -0.23882   0.02302  -0.06060  -0.00001
  16        3PX        -0.00356  -0.01190   0.01335   0.00228   0.00000
  17        3PY         0.01874   0.02899   0.00785  -0.00205   0.00000
  18        3PZ        -0.00000  -0.00001  -0.00000  -0.00000  -0.00085
  19 3   C  1S         -0.13404  -0.00081  -0.02847   0.00331  -0.00000
  20        2S          0.14848   0.00088   0.03116  -0.00368   0.00000
  21        2PX        -0.05738  -0.00305  -0.00252  -0.00106  -0.00000
  22        2PY         0.00304  -0.09506   0.00197  -0.02746  -0.00000
  23        2PZ        -0.00001   0.00000  -0.00000   0.00000   0.00027
  24        3S          0.30201   0.00292   0.07056  -0.00938   0.00001
  25        3PX        -0.03879   0.00089  -0.01208  -0.00014  -0.00000
  26        3PY         0.00046   0.02521   0.00314  -0.00603  -0.00000
  27        3PZ         0.00000   0.00001  -0.00000   0.00000   0.00025
  28 4   C  1S         -0.11208  -0.11214  -0.01532  -0.02103  -0.00000
  29        2S          0.12389   0.12014   0.01856   0.02179   0.00000
  30        2PX         0.01427  -0.04093   0.01908   0.01278   0.00000
  31        2PY         0.05049  -0.01498   0.00312  -0.01241  -0.00000
  32        2PZ        -0.00001  -0.00001  -0.00000  -0.00000   0.00095
  33        3S          0.21978   0.24648   0.00633   0.05661   0.00001
  34        3PX        -0.00721   0.01100   0.02220  -0.00427  -0.00000
  35        3PY        -0.01905   0.02705  -0.00617   0.00085  -0.00000
  36        3PZ        -0.00001  -0.00001  -0.00000  -0.00000   0.00120
  37 5   C  1S         -0.01495  -0.10571   0.01478   0.01646   0.00001
  38        2S          0.02093   0.11917  -0.01487  -0.01728  -0.00001
  39        2PX         0.08946   0.04549   0.00483   0.03103   0.00001
  40        2PY        -0.03247  -0.00056  -0.02570  -0.01062  -0.00000
  41        2PZ         0.00000  -0.00000   0.00000   0.00000   0.00605
  42        3S          0.02850   0.20933  -0.01473  -0.04442  -0.00002
  43        3PX         0.00201   0.03223   0.02584   0.00055  -0.00000
  44        3PY         0.02212  -0.01087  -0.00954   0.00353   0.00000
  45        3PZ         0.00000   0.00001   0.00000   0.00000   0.00215
  46 6   N  1S          0.08166   0.00091   0.02601  -0.00056  -0.00000
  47        2S         -0.07069  -0.00065  -0.01999  -0.00029   0.00000
  48        2PX         0.02253  -0.00539  -0.05620   0.00940  -0.00000
  49        2PY         0.00064  -0.11028  -0.00052   0.05902   0.00001
  50        2PZ        -0.00000   0.00001  -0.00000  -0.00000   0.01638
  51        3S         -0.29852  -0.00516  -0.10125   0.00457  -0.00000
  52        3PX         0.00260  -0.00472  -0.04053   0.00678  -0.00000
  53        3PY         0.00252  -0.10059  -0.00241   0.05022   0.00001
  54        3PZ        -0.00000   0.00000  -0.00000  -0.00000   0.01367
  55 7   H  1S          0.05646   0.00037   0.01699  -0.00220   0.00000
  56        2S          0.00629  -0.00013   0.00607  -0.00036  -0.00000
  57 8   H  1S          0.00264  -0.05424   0.00388   0.02358   0.00000
  58        2S          0.00599  -0.00587  -0.00036  -0.00260   0.00000
  59 9   H  1S          0.00189   0.05356   0.00342  -0.01677  -0.00001
  60        2S          0.00480   0.01014  -0.00353  -0.00395   0.00000
  61 10  C  1S         -0.04821   0.06783  -0.01796   0.03522   0.00001
  62        2S          0.04885  -0.06556   0.01770  -0.03320  -0.00001
  63        2PX        -0.01327   0.02297  -0.00215   0.00270   0.00000
  64        2PY        -0.02875   0.02836  -0.00732   0.00813   0.00000
  65        2PZ         0.00000  -0.00000   0.00000  -0.00000   0.00005
  66        3S          0.10081  -0.17942   0.04417  -0.10071  -0.00002
  67        3PX         0.00689   0.00486  -0.00012  -0.00010   0.00000
  68        3PY         0.00167   0.00708   0.00012   0.00405   0.00000
  69        3PZ        -0.00000   0.00000  -0.00000   0.00000   0.00033
  70 11  H  1S          0.02163  -0.02945   0.00911  -0.01851   0.00003
  71        2S         -0.00638   0.00638  -0.00057   0.00019   0.00003
  72 12  H  1S          0.01974  -0.03246   0.00783  -0.01735  -0.00000
  73        2S         -0.00211   0.00192  -0.00074  -0.00023  -0.00000
  74 13  H  1S          0.02163  -0.02945   0.00911  -0.01851  -0.00003
  75        2S         -0.00638   0.00637  -0.00057   0.00018  -0.00003
  76 14  C  1S         -0.04749  -0.06872  -0.01473  -0.03140  -0.00001
  77        2S          0.04813   0.06643   0.01467   0.02953   0.00001
  78        2PX        -0.01149  -0.02161  -0.00117  -0.00272  -0.00000
  79        2PY         0.02913   0.03023   0.00640   0.00714   0.00000
  80        2PZ         0.00001   0.00001   0.00000   0.00000   0.00014
  81        3S          0.09903   0.18108   0.03560   0.09067   0.00001
  82        3PX         0.00703  -0.00386  -0.00115  -0.00023   0.00000
  83        3PY        -0.00180   0.00735  -0.00117   0.00468   0.00000
  84        3PZ        -0.00004  -0.00003  -0.00000  -0.00002  -0.00021
  85 15  H  1S          0.02130   0.02983   0.00761   0.01629  -0.00006
  86        2S         -0.00641  -0.00664  -0.00022  -0.00028  -0.00004
  87 16  H  1S          0.02131   0.02981   0.00761   0.01629   0.00007
  88        2S         -0.00635  -0.00659  -0.00021  -0.00026   0.00004
  89 17  H  1S          0.01938   0.03284   0.00617   0.01556   0.00000
  90        2S         -0.00182  -0.00213  -0.00143   0.00132   0.00000
  91 18  B  1S          0.03311  -0.00259  -0.08683   0.00806  -0.00000
  92        2S         -0.03727   0.00125   0.09451  -0.00735   0.00000
  93        2PX        -0.02202   0.00050  -0.04512  -0.00527   0.00000
  94        2PY        -0.00086  -0.01394   0.00811   0.10275   0.00002
  95        2PZ         0.00000   0.00000  -0.00000  -0.00002   0.10500
  96        3S         -0.04138   0.00903   0.15474  -0.02180   0.00000
  97        3PX         0.00034  -0.00125   0.01222   0.00109  -0.00000
  98        3PY         0.00921   0.01747  -0.02448  -0.00780   0.00000
  99        3PZ        -0.00000   0.00000   0.00001   0.00000  -0.01100
 100 19  Cl 1S         -0.00627   0.00306   0.03760  -0.03322   0.05576
 101        2S          0.03658  -0.01793  -0.22029   0.19523  -0.32794
 102        2PX         0.00311  -0.00178  -0.00670   0.00659  -0.00916
 103        2PY         0.00311  -0.00029  -0.01314   0.00238  -0.01193
 104        2PZ        -0.00528   0.00211   0.02206  -0.01389   0.01512
 105        3S         -0.04725   0.02193   0.28415  -0.24203   0.40343
 106        3PX        -0.00616   0.00396   0.01340  -0.01334   0.01818
 107        3PY        -0.00652   0.00099   0.02732  -0.00408   0.02417
 108        3PZ         0.01088  -0.00422  -0.04561   0.02817  -0.02949
 109        4S         -0.02756   0.02217   0.19416  -0.21712   0.37891
 110        4PX        -0.00347   0.00211   0.00316  -0.01090   0.01870
 111        4PY        -0.00086  -0.00239   0.00590  -0.00673   0.02099
 112        4PZ         0.00050  -0.00513  -0.00694   0.02048  -0.03348
 113 20  Cl 1S         -0.00648  -0.00412   0.04598   0.05746  -0.00001
 114        2S          0.03786   0.02421  -0.26967  -0.33795   0.00003
 115        2PX         0.00363   0.00288  -0.01203  -0.01393   0.00000
 116        2PY        -0.00562  -0.00171   0.02765   0.01778  -0.00000
 117        2PZ         0.00000   0.00000  -0.00001  -0.00001  -0.00573
 118        3S         -0.04532  -0.02557   0.33902   0.41368  -0.00004
 119        3PX        -0.00663  -0.00556   0.02375   0.02725  -0.00000
 120        3PY         0.01128   0.00344  -0.05681  -0.03519   0.00001
 121        3PZ        -0.00000  -0.00000   0.00002   0.00001   0.01247
 122        4S         -0.04089  -0.04294   0.27586   0.39674  -0.00004
 123        4PX        -0.00842  -0.00889   0.01712   0.03083  -0.00000
 124        4PY         0.00563   0.00842  -0.02446  -0.03861   0.00001
 125        4PZ        -0.00000  -0.00000   0.00001   0.00001   0.00491
 126 21  Cl 1S         -0.00627   0.00306   0.03760  -0.03323  -0.05575
 127        2S          0.03657  -0.01794  -0.22030   0.19528   0.32790
 128        2PX         0.00311  -0.00178  -0.00670   0.00660   0.00916
 129        2PY         0.00312  -0.00030  -0.01315   0.00239   0.01193
 130        2PZ         0.00528  -0.00211  -0.02205   0.01389   0.01511
 131        3S         -0.04725   0.02194   0.28415  -0.24209  -0.40338
 132        3PX        -0.00616   0.00396   0.01340  -0.01334  -0.01818
 133        3PY        -0.00652   0.00099   0.02734  -0.00410  -0.02418
 134        3PZ        -0.01087   0.00422   0.04560  -0.02818  -0.02947
 135        4S         -0.02756   0.02219   0.19417  -0.21718  -0.37887
 136        4PX        -0.00347   0.00211   0.00317  -0.01091  -0.01870
 137        4PY        -0.00086  -0.00239   0.00590  -0.00674  -0.02101
 138        4PZ        -0.00051   0.00513   0.00694  -0.02048  -0.03346
                          31        32        33        34        35
                           O         O         O         O         O
     Eigenvalues --    -1.01740  -1.00747  -0.94028  -0.88284  -0.80763
   1 1   C  1S          0.09601  -0.01143   0.08310   0.02648   0.03727
   2        2S         -0.10480   0.01266  -0.09568  -0.02652  -0.03652
   3        2PX         0.03876  -0.01662  -0.11127   0.16922   0.05430
   4        2PY         0.03043   0.03213  -0.05746   0.02631  -0.20459
   5        2PZ         0.00000  -0.00000  -0.00000   0.00001   0.00001
   6        3S         -0.23223   0.03682  -0.20760  -0.07773  -0.19353
   7        3PX        -0.03392  -0.00812  -0.03136   0.03102   0.04865
   8        3PY        -0.00634   0.01524  -0.03567  -0.02496  -0.09259
   9        3PZ        -0.00000   0.00000   0.00000   0.00000   0.00001
  10 2   C  1S         -0.01795   0.00146   0.02895  -0.09829   0.01062
  11        2S          0.01722  -0.00134  -0.02953   0.10131  -0.00965
[...]
  79        2PY         0.52499
  80        2PZ         0.56043
  81        3S          1.14787
  82        3PX         0.52754
  83        3PY         0.35850
  84        3PZ         0.57560
  85 15  H  1S          0.46650
  86        2S          0.29120
  87 16  H  1S          0.46654
  88        2S          0.29135
  89 17  H  1S          0.46948
  90        2S          0.28955
  91 18  B  1S          1.99014
  92        2S          0.33912
  93        2PX         0.34605
  94        2PY         0.38655
  95        2PZ         0.38684
  96        3S          0.65376
  97        3PX         0.13105
  98        3PY         0.22253
  99        3PZ         0.19289
 100 19  Cl 1S          1.99861
 101        2S          1.95928
 102        2PX         1.97034
 103        2PY         1.96915
 104        2PZ         1.96617
 105        3S          1.10884
 106        3PX         1.06285
 107        3PY         1.02722
 108        3PZ         0.94484
 109        4S          0.89986
 110        4PX         0.87140
 111        4PY         0.80018
 112        4PZ         0.64289
 113 20  Cl 1S          1.99858
 114        2S          1.95866
 115        2PX         1.96939
 116        2PY         1.96489
 117        2PZ         1.97113
 118        3S          1.10875
 119        3PX         1.04623
 120        3PY         0.91203
 121        3PZ         1.08261
 122        4S          0.91891
 123        4PX         0.85644
 124        4PY         0.59628
 125        4PZ         0.87996
 126 21  Cl 1S          1.99861
 127        2S          1.95928
 128        2PX         1.97034
 129        2PY         1.96915
 130        2PZ         1.96618
 131        3S          1.10884
 132        3PX         1.06284
 133        3PY         1.02714
 134        3PZ         0.94493
 135        4S          0.89987
 136        4PX         0.87139
 137        4PY         0.80005
 138        4PZ         0.64305
          Condensed to atoms (all electrons):
               1          2          3          4          5          6
     1  C    4.902574   0.460115  -0.094618  -0.003959  -0.104003   0.295477
     2  C    0.460115   5.460580   0.395574  -0.084271  -0.003723  -0.032664
     3  C   -0.094618   0.395574   5.259267   0.392599  -0.098178  -0.041418
     4  C   -0.003959  -0.084271   0.392599   5.440203   0.488289  -0.031999
     5  C   -0.104003  -0.003723  -0.098178   0.488289   4.875244   0.292147
     6  N    0.295477  -0.032664  -0.041418  -0.031999   0.292147   7.552578
     7  H    0.001787  -0.029354   0.397510  -0.029079   0.001796  -0.000109
     8  H    0.372858  -0.029910   0.002965  -0.000546   0.002188  -0.031919
     9  H    0.002076  -0.000481   0.002866  -0.028938   0.381487  -0.028225
    10  C   -0.046655   0.217474  -0.057636   0.002094  -0.000012   0.002492
    11  H    0.001185  -0.052631  -0.001981   0.000061   0.000006  -0.000027
    12  H   -0.000889  -0.049603   0.002843  -0.000067   0.000013   0.000021
    13  H    0.001188  -0.052625  -0.001983   0.000061   0.000006  -0.000027
    14  C   -0.000024   0.002077  -0.056936   0.216282  -0.045986   0.002410
    15  H    0.000006   0.000063  -0.001870  -0.052814   0.001101  -0.000027
    16  H    0.000006   0.000065  -0.001884  -0.052776   0.001135  -0.000027
    17  H    0.000013  -0.000067   0.002834  -0.049398  -0.000917   0.000017
    18  B   -0.044112   0.002879  -0.001476   0.000862  -0.067701   0.093624
    19  Cl  -0.001223  -0.000122  -0.000005   0.000023  -0.010092  -0.041282
    20  Cl  -0.014867   0.001325  -0.000050  -0.000040  -0.000144  -0.033711
    21  Cl  -0.001222  -0.000122  -0.000005   0.000025  -0.010098  -0.041276
               7          8          9         10         11         12
     1  C    0.001787   0.372858   0.002076  -0.046655   0.001185  -0.000889
     2  C   -0.029354  -0.029910  -0.000481   0.217474  -0.052631  -0.049603
     3  C    0.397510   0.002965   0.002866  -0.057636  -0.001981   0.002843
     4  C   -0.029079  -0.000546  -0.028938   0.002094   0.000061  -0.000067
     5  C    0.001796   0.002188   0.381487  -0.000012   0.000006   0.000013
     6  N   -0.000109  -0.031919  -0.028225   0.002492  -0.000027   0.000021
     7  H    0.377031  -0.000023  -0.000025  -0.001100   0.000283   0.000010
     8  H   -0.000023   0.329871  -0.000000  -0.000334  -0.000028   0.001174
     9  H   -0.000025  -0.000000   0.333884   0.000000  -0.000000  -0.000000
    10  C   -0.001100  -0.000334   0.000000   5.321638   0.383028   0.388104
    11  H    0.000283  -0.000028  -0.000000   0.383028   0.473043  -0.021551
    12  H    0.000010   0.001174  -0.000000   0.388104  -0.021551   0.462258
    13  H    0.000284  -0.000028  -0.000000   0.383029  -0.023765  -0.021550
    14  C   -0.001082   0.000000  -0.000485  -0.000028   0.000000   0.000000
    15  H    0.000279  -0.000000  -0.000020   0.000000  -0.000000  -0.000000
    16  H    0.000287  -0.000000  -0.000020   0.000000   0.000000  -0.000000
    17  H    0.000009  -0.000000   0.001152   0.000000  -0.000000  -0.000000
    18  B    0.000012  -0.007805  -0.010076  -0.000046   0.000002   0.000000
    19  Cl   0.000000   0.000313   0.000233   0.000001  -0.000000  -0.000000
    20  Cl  -0.000000   0.004143   0.000139   0.000018  -0.000000  -0.000006
    21  Cl   0.000000   0.000313   0.000232   0.000001  -0.000000  -0.000000
              13         14         15         16         17         18
     1  C    0.001188  -0.000024   0.000006   0.000006   0.000013  -0.044112
     2  C   -0.052625   0.002077   0.000063   0.000065  -0.000067   0.002879
     3  C   -0.001983  -0.056936  -0.001870  -0.001884   0.002834  -0.001476
     4  C    0.000061   0.216282  -0.052814  -0.052776  -0.049398   0.000862
     5  C    0.000006  -0.045986   0.001101   0.001135  -0.000917  -0.067701
     6  N   -0.000027   0.002410  -0.000027  -0.000027   0.000017   0.093624
     7  H    0.000284  -0.001082   0.000279   0.000287   0.000009   0.000012
     8  H   -0.000028   0.000000  -0.000000  -0.000000  -0.000000  -0.007805
     9  H   -0.000000  -0.000485  -0.000020  -0.000020   0.001152  -0.010076
    10  C    0.383029  -0.000028   0.000000   0.000000   0.000000  -0.000046
    11  H   -0.023765   0.000000  -0.000000   0.000000  -0.000000   0.000002
    12  H   -0.021550   0.000000  -0.000000  -0.000000  -0.000000   0.000000
    13  H    0.473045   0.000000   0.000000  -0.000000  -0.000000   0.000002
    14  C    0.000000   5.321310   0.382926   0.382985   0.388279  -0.000046
    15  H    0.000000   0.382926   0.473321  -0.023847  -0.021424   0.000004
    16  H   -0.000000   0.382985  -0.023847   0.473401  -0.021429   0.000004
    17  H   -0.000000   0.388279  -0.021424  -0.021429   0.459980  -0.000010
    18  B    0.000002  -0.000046   0.000004   0.000004  -0.000010   3.983645
    19  Cl  -0.000000   0.000013  -0.000000  -0.000000  -0.000003   0.232372
    20  Cl  -0.000000   0.000000  -0.000000  -0.000000  -0.000000   0.234442
    21  Cl  -0.000000   0.000013  -0.000000  -0.000000  -0.000003   0.232373
              19         20         21
     1  C   -0.001223  -0.014867  -0.001222
     2  C   -0.000122   0.001325  -0.000122
     3  C   -0.000005  -0.000050  -0.000005
     4  C    0.000023  -0.000040   0.000025
     5  C   -0.010092  -0.000144  -0.010098
     6  N   -0.041282  -0.033711  -0.041276
     7  H    0.000000  -0.000000   0.000000
     8  H    0.000313   0.004143   0.000313
     9  H    0.000233   0.000139   0.000232
    10  C    0.000001   0.000018   0.000001
    11  H   -0.000000  -0.000000  -0.000000
    12  H   -0.000000  -0.000006  -0.000000
    13  H   -0.000000  -0.000000  -0.000000
    14  C    0.000013   0.000000   0.000013
    15  H   -0.000000  -0.000000  -0.000000
    16  H   -0.000000  -0.000000  -0.000000
    17  H   -0.000003  -0.000000  -0.000003
    18  B    0.232372   0.234442   0.232373
    19  Cl  17.225393  -0.086026  -0.097960
    20  Cl  -0.086026  17.244672  -0.086024
    21  Cl  -0.097960  -0.086024  17.225414
 Mulliken charges:
               1
     1  C    0.274288
     2  C   -0.204578
     3  C   -0.098417
     4  C   -0.206610
     5  C    0.297443
     6  N   -0.956054
     7  H    0.281486
     8  H    0.356767
     9  H    0.346203
    10  C   -0.592068
    11  H    0.242377
    12  H    0.239243
    13  H    0.242363
    14  C   -0.591709
    15  H    0.242305
    16  H    0.242104
    17  H    0.240968
    18  B    0.351052
    19  Cl  -0.221634
    20  Cl  -0.263871
    21  Cl  -0.221660
 Sum of Mulliken charges =  -0.00000
 Mulliken charges with hydrogens summed into heavy atoms:
               1
     1  C    0.631055
     2  C   -0.204578
     3  C    0.183070
     4  C   -0.206610
     5  C    0.643647
     6  N   -0.956054
    10  C    0.131914
    14  C    0.133669
    18  B    0.351052
    19  Cl  -0.221634
    20  Cl  -0.263871
    21  Cl  -0.221660
 Electronic spatial extent (au):  <R**2>=           3258.5493
 Charge=              0.0000 electrons
 Dipole moment (field-independent basis, Debye):
    X=             11.8898    Y=              0.2672    Z=             -0.0007  Tot=             11.8928
 Quadrupole moment (field-independent basis, Debye-Ang):
   XX=            -93.0640   YY=            -87.4003   ZZ=           -104.4006
   XY=              0.1883   XZ=             -0.0016   YZ=              0.0004
 Traceless Quadrupole moment (field-independent basis, Debye-Ang):
   XX=              1.8910   YY=              7.5546   ZZ=             -9.4456
   XY=              0.1883   XZ=             -0.0016   YZ=              0.0004
 Octapole moment (field-independent basis, Debye-Ang**2):
  XXX=             88.3294  YYY=             -4.6574  ZZZ=             -0.0175  XYY=             36.2137
  XXY=             -0.6272  XXZ=              0.0064  XZZ=             11.0275  YZZ=              5.7363
  YYZ=              0.0043  XYZ=              0.0061
 Hexadecapole moment (field-independent basis, Debye-Ang**3):
 XXXX=          -2474.3665 YYYY=          -1216.3411 ZZZZ=           -517.1813 XXXY=              5.4441
 XXXZ=              0.0672 YYYX=             10.2230 YYYZ=             -0.0199 ZZZX=             -0.0318
 ZZZY=              0.0300 XXYY=           -622.0181 XXZZ=           -548.1558 YYZZ=           -307.2792
 XXYZ=              0.0067 YYXZ=             -0.0311 ZZXY=             -9.8756
 N-N= 9.743911879190D+02 E-N=-6.024473562311D+03  KE= 1.717811965337D+03
 Orbital energies and kinetic energies (alpha):
                                 1                 2
   1         O              -104.072526        136.076394
   2         O              -104.062287        136.077016
   3         O              -104.062098        136.081727
   4         O               -15.625930         21.925985
   5         O               -11.293529         15.871695
   6         O               -11.292514         15.869258
   7         O               -11.262006         15.876206
   8         O               -11.255544         15.874127
   9         O               -11.255437         15.878863
  10         O               -11.212852         15.875563
  11         O               -11.211897         15.875498
  12         O               -10.466724         22.336619
  13         O               -10.457236         22.339548
  14         O               -10.456632         22.355035
  15         O                -7.929834         20.333944
  16         O                -7.926543         20.357504
  17         O                -7.926219         20.365613
  18         O                -7.920279         20.331359
  19         O                -7.920162         20.338029
  20         O                -7.916842         20.362268
  21         O                -7.916828         20.362881
  22         O                -7.916760         20.361738
  23         O                -7.916596         20.369222
  24         O                -7.713905         10.822962
  25         O                -1.377274          1.879833
  26         O                -1.186801          1.616466
  27         O                -1.141376          1.580887
  28         O                -1.106608          2.538395
  29         O                -1.059030          2.738920
  30         O                -1.048347          2.929541
  31         O                -1.017405          1.687891
  32         O                -1.007472          1.380634
  33         O                -0.940283          1.584132
  34         O                -0.882842          1.584954
  35         O                -0.807626          1.298129
  36         O                -0.765395          1.418012
  37         O                -0.728711          1.542770
  38         O                -0.663522          1.041954
  39         O                -0.656322          1.306482
  40         O                -0.652867          1.318732
  41         O                -0.621315          0.934042
  42         O                -0.616426          1.448766
  43         O                -0.608528          1.124484
  44         O                -0.599584          1.435724
  45         O                -0.591395          1.167965
  46         O                -0.556594          1.422303
  47         O                -0.549722          1.604701
  48         O                -0.523417          1.988536
  49         O                -0.520163          1.805502
  50         O                -0.457931          1.591031
  51         O                -0.449199          2.209961
  52         O                -0.437846          2.219961
  53         O                -0.429111          1.846431
  54         O                -0.415966          2.358638
  55         O                -0.413587          2.279897
  56         O                -0.404462          2.400852
  57         O                -0.396883          1.300404
  58         V                 0.032935          1.391890
  59         V                 0.091667          1.308450
  60         V                 0.225482          1.187899
  61         V                 0.237847          1.964288
  62         V                 0.242909          1.351759
  63         V                 0.247277          1.625212
  64         V                 0.256435          1.061195
  65         V                 0.268033          1.341300
  66         V                 0.276882          1.008850
  67         V                 0.286199          1.074474
  68         V                 0.292296          1.586219
  69         V                 0.315852          0.892440
  70         V                 0.317044          1.216662
  71         V                 0.328580          1.300076
  72         V                 0.343263          1.952094
  73         V                 0.364083          1.310429
  74         V                 0.404435          1.812478
  75         V                 0.413203          1.913172
  76         V                 0.438410          1.794897
  77         V                 0.469128          1.589958
  78         V                 0.532403          2.030509
  79         V                 0.547264          1.922495
  80         V                 0.620142          1.687888
  81         V                 0.657721          2.151110
  82         V                 0.686442          2.548952
  83         V                 0.717863          2.669551
  84         V                 0.731817          2.535807
  85         V                 0.765521          2.932853
  86         V                 0.790201          3.257445
  87         V                 0.811155          3.203738
  88         V                 0.815157          3.501648
  89         V                 0.820901          3.442392
  90         V                 0.852273          2.855855
  91         V                 0.867316          2.706893
  92         V                 0.867613          3.017001
  93         V                 0.878189          2.780389
  94         V                 0.882413          2.546254
  95         V                 0.894412          2.650941
  96         V                 0.906068          3.166945
  97         V                 0.914154          2.424009
  98         V                 0.930751          2.935259
  99         V                 0.942763          3.515522
 100         V                 0.953315          3.068947
 101         V                 0.979327          2.930066
 102         V                 0.980991          2.302411
 103         V                 1.011467          3.050381
 104         V                 1.019732          2.870030
 105         V                 1.070719          3.481101
 106         V                 1.106138          2.907851
 107         V                 1.113168          2.705588
 108         V                 1.145502          2.885367
 109         V                 1.155436          3.020713
 110         V                 1.157712          2.976672
 111         V                 1.162090          2.875374
 112         V                 1.191335          3.146765
 113         V                 1.198768          2.970336
 114         V                 1.290815          3.102284
 115         V                 1.298509          2.949613
 116         V                 1.310052          2.983770
 117         V                 1.317039          2.993215
 118         V                 1.317948          3.201292
 119         V                 1.320049          2.853542
 120         V                 1.334542          2.865011
 121         V                 1.365400          3.054664
 122         V                 1.411820          3.199897
 123         V                 1.481005          2.962814
 124         V                 1.534421          3.997138
 125         V                 1.557478          3.167309
 126         V                 1.588539          2.926160
 127         V                 1.665486          3.498936
 128         V                 1.693095          3.014134
 129         V                 1.741020          3.133850
 130         V                 1.796702          3.356549
 131         V                 1.887553          3.335400
 132         V                 1.915093          3.611142
 133         V                 2.112439          3.465537
 134         V                 2.176133          4.076696
 135         V                 2.206593          3.566828
 136         V                 2.237388          3.505003
 137         V                 2.308204          3.703120
 138         V                 3.229138          5.135889
 Total kinetic energy from orbitals= 1.717811965337D+03
 1\1\GINC-IISERK51\SP\RHF\3-21G\C7H9B1Cl3N1\GAUSSIAN\16-Jun-2025\0\\# h
 f/3-21g pop=full geom=connectivity\\Title Card Required\\0,1\C,0,-0.83
 436,1.207501,0.000053\C,0,-2.212907,1.210591,-0.000002\C,0,-2.85697,-0
 .013944,-0.000123\C,0,-2.140521,-1.204332,-0.000118\C,0,-0.771105,-1.1
 19761,-0.000041\N,0,-0.135941,0.066533,0.000049\H,0,-3.929899,-0.04611
 1,-0.000234\H,0,-0.270564,2.111029,0.000128\H,0,-0.15117,-1.988071,-0.
 000091\C,0,-2.986254,2.512521,0.000075\H,0,-3.615781,2.580561,0.879839
 \H,0,-2.315773,3.361759,-0.000216\H,0,-3.616307,2.580377,-0.879321\C,0
 ,-2.840837,-2.546438,0.000145\H,0,-3.462101,-2.650044,0.882343\H,0,-3.
 469569,-2.646625,-0.877111\H,0,-2.124515,-3.357176,-0.004486\B,0,1.470
 357,0.030388,0.000002\Cl,0,1.987795,-0.915042,-1.5584\Cl,0,2.166243,1.
 781479,0.000453\Cl,0,1.987916,-0.91586,1.55788\\Version=EM64L-G16RevB.
 01\State=1-A\HF=-1719.5648003\RMSD=8.926e-09\Dipole=-4.6778053,0.10512
 31,0.0002745\Quadrupole=1.4059145,5.6166829,-7.0225974,-0.1399942,-0.0
 012013,-0.0002956\PG=C01 [X(C7H9B1Cl3N1)]\\@


 GOORD'S AXIOM:  A MEETING IS AN EVENT AT WHICH
 THE MINUTES ARE KEPT AND THE HOURS ARE LOST.
 Job cpu time:       0 days  0 hours  0 minutes  2.8 seconds.
 Elapsed time:       0 days  0 hours  0 minutes  2.8 seconds.
 File lengths (MBytes):  RWF=     10 Int=      0 D2E=      0 Chk=      2 Scr=      1
 Normal termination of Gaussian 16 at Mon Jun 16 23:27:51 2025.
