 Entering Gaussian System, Link 0=g16
 Input=/home/gaussian/Documents/Summer_Internship/Acid_Base_adduct/Adduct/3,5 DMP - BCl3/BCl3_only_adduct_sp.com
 Output=/home/gaussian/Documents/Summer_Internship/Acid_Base_adduct/Adduct/3,5 DMP - BCl3/BCl3_only_adduct_sp.log
 Initial command:
 /usr/local/g16/l1.exe "/home/gaussian/tmp/Gau-81002.inp" -scrdir="/home/gaussian/tmp/"
 Entering Link 1 = /usr/local/g16/l1.exe PID=     81005.
  
 Copyright (c) 1988-2017, Gaussian, Inc.  All Rights Reserved.
  
 This is part of the Gaussian(R) 16 program.  It is based on
 the Gaussian(R) 09 system (copyright 2009, Gaussian, Inc.),
 the Gaussian(R) 03 system (copyright 2003, Gaussian, Inc.),
 the Gaussian(R) 98 system (copyright 1998, Gaussian, Inc.),
 the Gaussian(R) 94 system (copyright 1995, Gaussian, Inc.),
 the Gaussian 92(TM) system (copyright 1992, Gaussian, Inc.),
 the Gaussian 90(TM) system (copyright 1990, Gaussian, Inc.),
 the Gaussian 88(TM) system (copyright 1988, Gaussian, Inc.),
 the Gaussian 86(TM) system (copyright 1986, Carnegie Mellon
 University), and the Gaussian 82(TM) system (copyright 1983,
 Carnegie Mellon University). Gaussian is a federally registered
 trademark of Gaussian, Inc.
  
 This software contains proprietary and confidential information,
 including trade secrets, belonging to Gaussian, Inc.
  
 This software is provided under written license and may be
 used, copied, transmitted, or stored only in accord with that
 written license.
  
 The following legend is applicable only to US Government
 contracts under FAR:
  
                    RESTRICTED RIGHTS LEGEND
  
 Use, reproduction and disclosure by the US Government is
 subject to restrictions as set forth in subparagraphs (a)
 and (c) of the Commercial Computer Software - Restricted
 Rights clause in FAR 52.227-19.
  
 Gaussian, Inc.
 340 Quinnipiac St., Bldg. 40, Wallingford CT 06492
  
  
 ---------------------------------------------------------------
 Warning -- This program may not be used in any manner that
 competes with the business of Gaussian, Inc. or will provide
 assistance to any competitor of Gaussian, Inc.  The licensee
 of this program is prohibited from giving any competitor of
 Gaussian, Inc. access to this program.  By using this program,
 the user acknowledges that Gaussian, Inc. is engaged in the
 business of creating and licensing software in the field of
 computational chemistry and represents and warrants to the
 licensee that it is not a competitor of Gaussian, Inc. and that
 it will not use this program in any manner prohibited above.
 ---------------------------------------------------------------
  

 Cite this work as:
 Gaussian 16, Revision B.01,
 M. J. Frisch, G. W. Trucks, H. B. Schlegel, G. E. Scuseria, 
 M. A. Robb, J. R. Cheeseman, G. Scalmani, V. Barone, 
 G. A. Petersson, H. Nakatsuji, X. Li, M. Caricato, A. V. Marenich, 
 J. Bloino, B. G. Janesko, R. Gomperts, B. Mennucci, H. P. Hratchian, 
 J. V. Ortiz, A. F. Izmaylov, J. L. Sonnenberg, D. Williams-Young, 
 F. Ding, F. Lipparini, F. Egidi, J. Goings, B. Peng, A. Petrone, 
 T. Henderson, D. Ranasinghe, V. G. Zakrzewski, J. Gao, N. Rega, 
 G. Zheng, W. Liang, M. Hada, M. Ehara, K. Toyota, R. Fukuda, 
 J. Hasegawa, M. Ishida, T. Nakajima, Y. Honda, O. Kitao, H. Nakai, 
 T. Vreven, K. Throssell, J. A. Montgomery, Jr., J. E. Peralta, 
 F. Ogliaro, M. J. Bearpark, J. J. Heyd, E. N. Brothers, K. N. Kudin, 
 V. N. Staroverov, T. A. Keith, R. Kobayashi, J. Normand, 
 K. Raghavachari, A. P. Rendell, J. C. Burant, S. S. Iyengar, 
 J. Tomasi, M. Cossi, J. M. Millam, M. Klene, C. Adamo, R. Cammi, 
 J. W. Ochterski, R. L. Martin, K. Morokuma, O. Farkas, 
 J. B. Foresman, and D. J. Fox, Gaussian, Inc., Wallingford CT, 2016.
 
 ******************************************
 Gaussian 16:  EM64L-G16RevB.01 20-Dec-2017
                16-Jun-2025 
 ******************************************
 %chk=BCl3_only_adduct_sp.chk
 -------------------------------------
 # hf/3-21g pop=full geom=connectivity
 -------------------------------------
 1/38=1,57=2,172=1/1;
 2/12=2,17=6,18=5,40=1/2;
 3/5=5,11=9,25=1,30=1/1,2,3;
 4//1;
 5/5=2,38=5/2;
 6/7=3,28=1/1;
 99/5=1,9=1/99;
 -------------------
 Title Card Required
 -------------------
 Symbolic Z-matrix:
 Charge =  0 Multiplicity = 1
 B                    -1.47036   0.03039  0. 
 Cl                   -1.9878   -0.91504   1.5584 
 Cl                   -2.16624   1.78148  -0.00045 
 Cl                   -1.98792  -0.91586  -1.55788 
 
                          Input orientation:                          
 ---------------------------------------------------------------------
 Center     Atomic      Atomic             Coordinates (Angstroms)
 Number     Number       Type             X           Y           Z
 ---------------------------------------------------------------------
      1          5           0       -1.470357    0.030388   -0.000002
      2         17           0       -1.987795   -0.915042    1.558400
      3         17           0       -2.166243    1.781479   -0.000453
      4         17           0       -1.987916   -0.915860   -1.557880
 ---------------------------------------------------------------------
                    Distance matrix (angstroms):
                    1          2          3          4
     1  B    0.000000
     2  Cl   1.894781   0.000000
     3  Cl   1.884298   3.119790   0.000000
     4  Cl   1.894792   3.116280   3.119778   0.000000
 Stoichiometry    BCl3
 Framework group  C1[X(BCl3)]
 Deg. of freedom     6
 Full point group                 C1      NOp   1
 Largest Abelian subgroup         C1      NOp   1
 Largest concise Abelian subgroup C1      NOp   1
                         Standard orientation:                         
 ---------------------------------------------------------------------
 Center     Atomic      Atomic             Coordinates (Angstroms)
 Number     Number       Type             X           Y           Z
 ---------------------------------------------------------------------
      1          5           0       -0.008054   -0.000022    0.527115
      2         17           0        0.904037   -1.556806   -0.051425
      3         17           0       -1.801091   -0.002658   -0.052185
      4         17           0        0.899422    1.559471   -0.051424
 ---------------------------------------------------------------------
 Rotational constants (GHZ):           2.9190277           2.9104507           1.4859727
 Standard basis: 3-21G (6D, 7F)
 There are    48 symmetry adapted cartesian basis functions of A   symmetry.
 There are    48 symmetry adapted basis functions of A   symmetry.
    48 basis functions,    96 primitive gaussians,    48 cartesian basis functions
    28 alpha electrons       28 beta electrons
       nuclear repulsion energy       218.4641970693 Hartrees.
 NAtoms=    4 NActive=    4 NUniq=    4 SFac= 1.00D+00 NAtFMM=   60 NAOKFM=F Big=F
 Integral buffers will be    131072 words long.
 Raffenetti 1 integral format.
 Two-electron integral symmetry is turned on.
 One-electron integrals computed using PRISM.
 NBasis=    48 RedAO= T EigKep=  1.51D-02  NBF=    48
 NBsUse=    48 1.00D-06 EigRej= -1.00D+00 NBFU=    48
 ExpMin= 1.24D-01 ExpMax= 1.38D+03 ExpMxC= 1.38D+03 IAcc=3 IRadAn=         5 AccDes= 0.00D+00
 Harris functional with IExCor=  205 and IRadAn=       5 diagonalized for initial guess.
 HarFok:  IExCor=  205 AccDes= 0.00D+00 IRadAn=         5 IDoV= 1 UseB2=F ITyADJ=14
 ICtDFT=  3500011 ScaDFX=  1.000000  1.000000  1.000000  1.000000
 FoFCou: FMM=F IPFlag=           0 FMFlag=      100000 FMFlg1=           0
         NFxFlg=           0 DoJE=T BraDBF=F KetDBF=T FulRan=T
         wScrn=  0.000000 ICntrl=       500 IOpCl=  0 I1Cent=   200000004 NGrid=           0
         NMat0=    1 NMatS0=      1 NMatT0=    0 NMatD0=    1 NMtDS0=    0 NMtDT0=    0
 Petite list used in FoFCou.
 Keep R1 ints in memory in canonical form, NReq=1501354.
 Requested convergence on RMS density matrix=1.00D-08 within 128 cycles.
 Requested convergence on MAX density matrix=1.00D-06.
 Requested convergence on             energy=1.00D-06.
 No special actions if energy rises.
 SCF Done:  E(RHF) =  -1396.47938065     A.U. after   11 cycles
            NFock= 11  Conv=0.78D-08     -V/T= 2.0010

 **********************************************************************

            Population analysis using the SCF Density.

 **********************************************************************

 Orbital symmetries:
       Occupied  (A) (A) (A) (A) (A) (A) (A) (A) (A) (A) (A) (A)
                 (A) (A) (A) (A) (A) (A) (A) (A) (A) (A) (A) (A)
                 (A) (A) (A) (A)
       Virtual   (A) (A) (A) (A) (A) (A) (A) (A) (A) (A) (A) (A)
                 (A) (A) (A) (A) (A) (A) (A) (A)
 The electronic state is 1-A.
 Alpha  occ. eigenvalues -- -104.14984-104.14812-104.14792 -10.54361 -10.54185
 Alpha  occ. eigenvalues --  -10.54115  -8.00654  -8.00461  -8.00447  -8.00293
 Alpha  occ. eigenvalues --   -8.00258  -8.00100  -8.00092  -8.00068  -8.00052
 Alpha  occ. eigenvalues --   -7.82026  -1.17857  -1.12308  -1.12084  -0.70644
 Alpha  occ. eigenvalues --   -0.59343  -0.59259  -0.55298  -0.50136  -0.50033
 Alpha  occ. eigenvalues --   -0.48272  -0.48167  -0.47353
 Alpha virt. eigenvalues --   -0.03982   0.16632   0.17699   0.18013   0.56301
 Alpha virt. eigenvalues --    0.56385   0.57087   0.64134   0.73096   0.73167
 Alpha virt. eigenvalues --    0.74883   0.74885   0.75524   0.81052   0.84339
 Alpha virt. eigenvalues --    0.84403   0.88913   1.01871   1.02083   1.17086
     Molecular Orbital Coefficients:
                           1         2         3         4         5
                           O         O         O         O         O
     Eigenvalues --  -104.14984-104.14812-104.14792 -10.54361 -10.54185
   1 1   B  1S          0.00008   0.00000   0.00014  -0.00054  -0.00000
   2        2S          0.00086   0.00001   0.00140  -0.00414  -0.00002
   3        2PX        -0.00005   0.00000   0.00002   0.00036  -0.00000
   4        2PY        -0.00000  -0.00004   0.00000   0.00000   0.00032
   5        2PZ        -0.00007  -0.00000  -0.00011   0.00037   0.00000
   6        3S         -0.00467  -0.00004  -0.00753   0.02278   0.00008
   7        3PX         0.00366  -0.00002  -0.00219  -0.02258   0.00005
   8        3PY         0.00001   0.00419  -0.00003  -0.00003  -0.02442
   9        3PZ         0.00125   0.00001   0.00201  -0.00614  -0.00002
  10 2   Cl 1S         -0.04937   0.70096   0.69151   0.03853  -0.21667
  11        2S         -0.00271   0.03778   0.03719  -0.12367   0.69615
  12        2PX         0.00005  -0.00008  -0.00007   0.00039  -0.00301
  13        2PY        -0.00003   0.00017   0.00009  -0.00083   0.00499
  14        2PZ        -0.00001   0.00006   0.00005  -0.00045   0.00267
  15        3S          0.00125  -0.01393  -0.01328  -0.01934   0.10269
  16        3PX        -0.00022   0.00031   0.00025   0.00141  -0.00233
  17        3PY         0.00017  -0.00068  -0.00029  -0.00129   0.00473
  18        3PZ         0.00006  -0.00022  -0.00014  -0.00054   0.00174
  19        4S         -0.00074   0.00975   0.00951   0.01001  -0.05679
  20        4PX        -0.00008  -0.00140  -0.00117  -0.00006   0.00822
  21        4PY        -0.00026   0.00216   0.00222   0.00278  -0.01248
  22        4PZ        -0.00027   0.00093   0.00061   0.00193  -0.00551
  23 3   Cl 1S          0.98341   0.00043   0.06980  -0.30105  -0.00013
  24        2S          0.05296   0.00002   0.00368   0.96734   0.00042
  25        2PX         0.00022  -0.00000  -0.00005   0.00830   0.00000
  26        2PY         0.00000   0.00003  -0.00000   0.00001  -0.00011
  27        2PZ         0.00008  -0.00000  -0.00001   0.00379   0.00000
  28        3S         -0.01930  -0.00001  -0.00094   0.14176   0.00006
  29        3PX        -0.00083   0.00000   0.00027   0.00644  -0.00000
  30        3PY        -0.00000  -0.00014   0.00000   0.00001   0.00072
  31        3PZ        -0.00026   0.00000   0.00006   0.00223   0.00000
  32        4S          0.01375   0.00001   0.00089  -0.07972  -0.00003
  33        4PX         0.00364   0.00000   0.00024  -0.02120  -0.00001
  34        4PY         0.00001  -0.00027   0.00000  -0.00003   0.00172
  35        4PZ         0.00115  -0.00000  -0.00023  -0.00693   0.00000
  36 4   Cl 1S         -0.04931  -0.69326   0.69924   0.03848   0.21595
  37        2S         -0.00271  -0.03737   0.03761  -0.12351  -0.69383
  38        2PX         0.00005   0.00008  -0.00007   0.00038   0.00299
  39        2PY         0.00004   0.00017  -0.00009   0.00083   0.00498
  40        2PZ        -0.00001  -0.00006   0.00005  -0.00045  -0.00266
  41        3S          0.00125   0.01378  -0.01344  -0.01931  -0.10236
  42        3PX        -0.00022  -0.00030   0.00025   0.00140   0.00231
  43        3PY        -0.00017  -0.00067   0.00030   0.00129   0.00473
  44        3PZ         0.00006   0.00022  -0.00014  -0.00054  -0.00173
  45        4S         -0.00074  -0.00964   0.00962   0.01000   0.05660
  46        4PX        -0.00008   0.00138  -0.00118  -0.00005  -0.00816
  47        4PY         0.00026   0.00214  -0.00224  -0.00278  -0.01246
  48        4PZ        -0.00027  -0.00093   0.00062   0.00193   0.00549
                           6         7         8         9        10
                           O         O         O         O         O
     Eigenvalues --   -10.54115  -8.00654  -8.00461  -8.00447  -8.00293
   1 1   B  1S         -0.00118  -0.00102  -0.00001   0.00157   0.00055
   2        2S         -0.00875  -0.00024  -0.00000   0.00022   0.00105
   3        2PX        -0.00014   0.00112  -0.00001   0.00062   0.00062
   4        2PY        -0.00000   0.00000   0.00116   0.00001   0.00000
   5        2PZ         0.00074   0.00030   0.00000  -0.00040  -0.00069
   6        3S          0.04755   0.00887   0.00012  -0.01325  -0.00412
   7        3PX         0.01038  -0.00936   0.00007  -0.00585  -0.00431
   8        3PY         0.00006  -0.00001  -0.01086  -0.00010  -0.00001
   9        3PZ        -0.01276  -0.00085  -0.00001   0.00108   0.00501
  10 2   Cl 1S         -0.21255  -0.00016   0.00248  -0.00236  -0.00003
  11        2S          0.68314   0.00063  -0.00863   0.00811   0.00008
  12        2PX        -0.00301   0.01934  -0.32315   0.32365  -0.01390
  13        2PY         0.00519  -0.02405   0.55918  -0.54221  -0.01341
  14        2PZ         0.00268  -0.00893   0.25400  -0.25595  -0.02100
  15        3S          0.09832  -0.00198   0.00596  -0.00314  -0.00004
  16        3PX        -0.00188   0.00229  -0.02762   0.02746  -0.00164
  17        3PY         0.00264  -0.00252   0.04822  -0.04560  -0.00109
  18        3PZ         0.00122  -0.00081   0.02170  -0.02177  -0.00187
  19        4S         -0.05580   0.00345  -0.01229   0.00745   0.00226
  20        4PX         0.00709  -0.00170   0.01168  -0.01028   0.00123
  21        4PY        -0.01321   0.00245  -0.02032   0.01706   0.00199
  22        4PZ        -0.00348   0.00058  -0.00864   0.00829   0.00082
  23 3   Cl 1S         -0.05456   0.00346   0.00000  -0.00009   0.00011
  24        2S          0.17554  -0.01197  -0.00000   0.00020  -0.00035
  25        2PX         0.00175   0.90259   0.00032  -0.03561  -0.36212
  26        2PY         0.00000   0.00133   0.01847   0.00012  -0.00053
  27        2PZ         0.00074   0.36114   0.00028  -0.03239   0.90357
  28        3S          0.02352   0.00668  -0.00002   0.00233  -0.00036
  29        3PX        -0.00058   0.07696   0.00002  -0.00197  -0.02946
  30        3PY        -0.00000   0.00011   0.00197   0.00002  -0.00004
  31        3PZ        -0.00004   0.03080   0.00002  -0.00264   0.07353
  32        4S         -0.01456  -0.01458   0.00003  -0.00383   0.00006
  33        4PX        -0.00421  -0.03094   0.00001  -0.00165   0.00948
  34        4PY        -0.00001  -0.00005  -0.00064  -0.00001   0.00001
  35        4PZ         0.00056  -0.01208  -0.00001   0.00060  -0.02327
  36 4   Cl 1S         -0.21329  -0.00016  -0.00244  -0.00241  -0.00003
  37        2S          0.68553   0.00063   0.00849   0.00826   0.00008
  38        2PX        -0.00300   0.01924   0.31577   0.32764  -0.01391
  39        2PY        -0.00521   0.02407   0.55049   0.55294   0.01338
  40        2PZ         0.00269  -0.00891  -0.24946  -0.26037  -0.02098
  41        3S          0.09867  -0.00198  -0.00591  -0.00324  -0.00004
  42        3PX        -0.00188   0.00229   0.02700   0.02781  -0.00164
  43        3PY        -0.00266   0.00253   0.04749   0.04652   0.00108
  44        3PZ         0.00123  -0.00081  -0.02131  -0.02215  -0.00187
  45        4S         -0.05600   0.00345   0.01216   0.00766   0.00226
  46        4PX         0.00708  -0.00170  -0.01144  -0.01043   0.00124
  47        4PY         0.01328  -0.00246  -0.02005  -0.01745  -0.00199
  48        4PZ        -0.00350   0.00058   0.00850   0.00844   0.00082
                          11        12        13        14        15
                           O         O         O         O         O
     Eigenvalues --    -8.00258  -8.00100  -8.00092  -8.00068  -8.00052
   1 1   B  1S         -0.00000   0.00001   0.00078  -0.00000  -0.00006
   2        2S         -0.00000   0.00002   0.00153  -0.00000  -0.00010
   3        2PX         0.00000  -0.00001  -0.00051  -0.00001  -0.00107
   4        2PY        -0.00095   0.00077  -0.00001  -0.00061   0.00000
   5        2PZ         0.00000  -0.00002  -0.00100   0.00000   0.00009
   6        3S          0.00000  -0.00009  -0.00587   0.00001   0.00040
   7        3PX        -0.00001   0.00006   0.00350   0.00004   0.00697
   8        3PY         0.00616  -0.00520   0.00009   0.00388  -0.00002
   9        3PZ        -0.00000   0.00012   0.00738  -0.00001  -0.00063
  10 2   Cl 1S         -0.00002   0.00008   0.00007   0.00001  -0.00001
  11        2S          0.00004  -0.00023  -0.00023  -0.00007   0.00008
  12        2PX        -0.03392   0.03268   0.19596   0.61208   0.56911
  13        2PY        -0.02228  -0.27348  -0.17824   0.30773   0.37255
  14        2PZ        -0.02994   0.64253   0.62450   0.09877  -0.06971
  15        3S          0.00054  -0.00032  -0.00032   0.00046  -0.00044
  16        3PX        -0.00355   0.00243   0.01606   0.04983   0.04593
  17        3PY        -0.00177  -0.02263  -0.01422   0.02544   0.02968
  18        3PZ        -0.00270   0.05239   0.05070   0.00785  -0.00547
  19        4S          0.00131  -0.00137   0.00167   0.00062  -0.00089
  20        4PX         0.00186   0.00050  -0.00635  -0.01624  -0.01389
  21        4PY         0.00114   0.00727   0.00481  -0.00842  -0.00909
  22        4PZ         0.00195  -0.01674  -0.01593  -0.00166   0.00093
  23 3   Cl 1S         -0.00000   0.00000   0.00000   0.00000   0.00002
  24        2S          0.00000  -0.00000  -0.00005  -0.00000  -0.00012
  25        2PX        -0.00142  -0.00028  -0.01534  -0.00019  -0.01415
  26        2PY         0.97171   0.02880  -0.00036   0.06293  -0.00044
  27        2PZ        -0.00001   0.00038   0.02408   0.00013   0.02007
  28        3S         -0.00000   0.00000   0.00006   0.00001   0.00086
  29        3PX        -0.00012  -0.00002  -0.00078  -0.00001  -0.00052
  30        3PY         0.07896   0.00185  -0.00002   0.00410  -0.00003
  31        3PZ        -0.00000   0.00003   0.00170   0.00001   0.00129
  32        4S         -0.00000   0.00005   0.00330   0.00001   0.00136
  33        4PX         0.00004   0.00003   0.00173  -0.00000   0.00009
  34        4PY        -0.02537   0.00121  -0.00002   0.00030  -0.00000
  35        4PZ         0.00000  -0.00000  -0.00009   0.00001   0.00113
  36 4   Cl 1S          0.00002  -0.00008   0.00007  -0.00001  -0.00001
  37        2S         -0.00004   0.00023  -0.00024   0.00007   0.00008
  38        2PX         0.03393  -0.02650   0.19476  -0.60493   0.57925
  39        2PY        -0.02218  -0.26727   0.18815   0.29987  -0.37575
  40        2PZ         0.02990  -0.62243   0.64419  -0.10146  -0.06909
  41        3S         -0.00054   0.00031  -0.00033  -0.00046  -0.00043
  42        3PX         0.00355  -0.00193   0.01596  -0.04926   0.04675
  43        3PY        -0.00176  -0.02213   0.01504   0.02482  -0.02995
  44        3PZ         0.00270  -0.05076   0.05230  -0.00807  -0.00543
  45        4S         -0.00131   0.00143   0.00162  -0.00064  -0.00088
  46        4PX        -0.00186  -0.00070  -0.00628   0.01607  -0.01416
  47        4PY         0.00113   0.00710  -0.00507  -0.00822   0.00918
  48        4PZ        -0.00194   0.01623  -0.01644   0.00171   0.00092
                          16        17        18        19        20
                           O         O         O         O         O
     Eigenvalues --    -7.82026  -1.17857  -1.12308  -1.12084  -0.70644
   1 1   B  1S          0.98940  -0.08957   0.00182  -0.00000  -0.15858
   2        2S          0.09320   0.11930  -0.00212   0.00000   0.20043
   3        2PX         0.00002  -0.00389  -0.11413  -0.00010  -0.00295
   4        2PY         0.00000  -0.00001  -0.00010   0.11226  -0.00001
   5        2PZ        -0.00127  -0.04193   0.00061  -0.00000  -0.05983
   6        3S         -0.06985   0.13147  -0.00440   0.00001   0.51227
   7        3PX        -0.00009   0.00100   0.01075   0.00001  -0.00005
   8        3PY        -0.00000   0.00000   0.00001  -0.00990   0.00000
   9        3PZ         0.01490  -0.01860   0.00083  -0.00000  -0.07969
  10 2   Cl 1S         -0.00012   0.04094  -0.03357  -0.05604  -0.02004
  11        2S          0.00056  -0.24008   0.19748   0.32971   0.12088
  12        2PX        -0.00094   0.01442  -0.00224  -0.01289   0.05576
  13        2PY         0.00158  -0.02439   0.01347   0.01630  -0.09473
  14        2PZ         0.00016  -0.00677   0.00500   0.00828  -0.02309
  15        3S         -0.00496   0.31062  -0.24758  -0.41279  -0.13884
  16        3PX         0.00030  -0.02979   0.00350   0.02605  -0.12007
  17        3PY        -0.00050   0.05037  -0.02725  -0.03188   0.20397
  18        3PZ         0.00036   0.01262  -0.00976  -0.01622   0.04708
  19        4S          0.01975   0.21819  -0.21913  -0.36844  -0.26476
  20        4PX        -0.00492  -0.00883   0.00947   0.02287  -0.04504
  21        4PY         0.00838   0.01467  -0.02295  -0.03505   0.07631
  22        4PZ        -0.00016   0.01040  -0.00975  -0.01623   0.02845
  23 3   Cl 1S         -0.00013   0.04365   0.06346  -0.00003  -0.02042
  24        2S          0.00059  -0.25597  -0.37340   0.00020   0.12317
  25        2PX         0.00187  -0.02982  -0.02351   0.00002  -0.11319
  26        2PY         0.00000  -0.00004  -0.00004  -0.00573  -0.00017
  27        2PZ         0.00017  -0.00737  -0.00967   0.00001  -0.02412
  28        3S         -0.00501   0.33065   0.46744  -0.00025  -0.14161
  29        3PX        -0.00067   0.06157   0.04649  -0.00004   0.24383
  30        3PY        -0.00000   0.00009   0.00008   0.01264   0.00036
  31        3PZ         0.00034   0.01381   0.01899  -0.00001   0.04931
  32        4S          0.01990   0.23552   0.41845  -0.00023  -0.26970
  33        4PX         0.00976   0.01943   0.04811  -0.00003   0.09209
  34        4PY         0.00001   0.00003   0.00007   0.00402   0.00014
  35        4PZ        -0.00020   0.01148   0.01880  -0.00001   0.02963
  36 4   Cl 1S         -0.00012   0.04094  -0.03350   0.05608  -0.02004
  37        2S          0.00056  -0.24007   0.19711  -0.32995   0.12087
  38        2PX        -0.00093   0.01435  -0.00219   0.01285   0.05547
  39        2PY        -0.00159   0.02443  -0.01345   0.01635   0.09489
  40        2PZ         0.00016  -0.00677   0.00499  -0.00829  -0.02308
  41        3S         -0.00496   0.31060  -0.24712   0.41309  -0.13884
  42        3PX         0.00030  -0.02964   0.00339  -0.02596  -0.11946
  43        3PY         0.00050  -0.05046   0.02723  -0.03199  -0.20432
  44        3PZ         0.00036   0.01262  -0.00974   0.01623   0.04708
  45        4S          0.01975   0.21817  -0.21871   0.36870  -0.26476
  46        4PX        -0.00489  -0.00878   0.00938  -0.02277  -0.04481
  47        4PY        -0.00840  -0.01469   0.02294  -0.03515  -0.07644
  48        4PZ        -0.00016   0.01040  -0.00973   0.01624   0.02844
                          21        22        23        24        25
                           O         O         O         O         O
     Eigenvalues --    -0.59343  -0.59259  -0.55298  -0.50136  -0.50033
   1 1   B  1S          0.00105  -0.00000  -0.03050   0.00078   0.00000
   2        2S         -0.00036   0.00000   0.05834  -0.00056  -0.00000
   3        2PX        -0.28299  -0.00022   0.00062  -0.11274   0.00010
   4        2PY        -0.00022   0.27932   0.00000  -0.00009  -0.11725
   5        2PZ         0.00046  -0.00000   0.14939  -0.00161  -0.00000
   6        3S         -0.00598   0.00001   0.02596  -0.00440  -0.00001
   7        3PX        -0.17882  -0.00014  -0.00008  -0.02257   0.00002
   8        3PY        -0.00014   0.18042  -0.00000  -0.00002  -0.02565
   9        3PZ         0.00164  -0.00000   0.17209  -0.00161  -0.00000
  10 2   Cl 1S          0.00714   0.01193  -0.00067   0.00158  -0.00278
  11        2S         -0.04337  -0.07245   0.00384  -0.00964   0.01689
  12        2PX         0.04796  -0.11564  -0.02273  -0.12555  -0.04243
  13        2PY         0.11677   0.08060   0.03660  -0.04977  -0.07159
  14        2PZ         0.02812   0.04776  -0.13697   0.08286  -0.13967
  15        3S          0.05374   0.09006  -0.01807   0.01661  -0.02913
  16        3PX        -0.10673   0.25082   0.05049   0.27247   0.09308
  17        3PY        -0.25330  -0.17215  -0.08143   0.10908   0.15413
  18        3PZ        -0.06064  -0.10309   0.29777  -0.17922   0.30208
  19        4S          0.09479   0.15787   0.03861   0.00794  -0.01391
  20        4PX        -0.07438   0.16187   0.02569   0.23642   0.08483
  21        4PY        -0.16293  -0.10573  -0.03985   0.09794   0.13023
  22        4PZ        -0.03397  -0.05741   0.23134  -0.15385   0.25963
  23 3   Cl 1S         -0.01379   0.00001  -0.00066  -0.00301  -0.00000
  24        2S          0.08376  -0.00006   0.00378   0.01831   0.00001
  25        2PX        -0.14917   0.00028   0.04598  -0.04174   0.00020
  26        2PY        -0.00030  -0.12130   0.00007   0.00004  -0.15690
  27        2PZ        -0.05777   0.00004  -0.14233  -0.15986  -0.00010
  28        3S         -0.10418   0.00007  -0.01811  -0.03164  -0.00002
  29        3PX         0.32098  -0.00061  -0.10216   0.08896  -0.00044
  30        3PY         0.00065   0.26597  -0.00015  -0.00010   0.34134
  31        3PZ         0.12477  -0.00009   0.30950   0.34589   0.00022
  32        4S         -0.18192   0.00012   0.03925  -0.01411  -0.00001
  33        4PX         0.20214  -0.00040  -0.05223   0.07151  -0.00039
  34        4PY         0.00042   0.17777  -0.00007  -0.00009   0.29847
  35        4PZ         0.07023  -0.00005   0.24071   0.29733   0.00019
  36 4   Cl 1S          0.00713  -0.01194  -0.00067   0.00158   0.00278
  37        2S         -0.04327   0.07251   0.00384  -0.00961  -0.01690
  38        2PX         0.04846   0.11533  -0.02261  -0.12574   0.04249
  39        2PY        -0.11651   0.08111  -0.03666   0.04948  -0.07140
  40        2PZ         0.02805  -0.04779  -0.13697   0.08268   0.13978
  41        3S          0.05362  -0.09013  -0.01807   0.01657   0.02915
  42        3PX        -0.10782  -0.25016   0.05025   0.27290  -0.09318
  43        3PY         0.25273  -0.17325   0.08158  -0.10846   0.15372
  44        3PZ        -0.06049   0.10317   0.29775  -0.17883  -0.30231
  45        4S          0.09457  -0.15800   0.03861   0.00792   0.01392
  46        4PX        -0.07508  -0.16145   0.02557   0.23681  -0.08491
  47        4PY         0.16255  -0.10644   0.03992  -0.09739   0.12985
  48        4PZ        -0.03389   0.05745   0.23133  -0.15352  -0.25983
                          26        27        28        29        30
                           O         O         O         V         V
     Eigenvalues --    -0.48272  -0.48167  -0.47353  -0.03982   0.16632
   1 1   B  1S         -0.00012   0.00000   0.00000  -0.10752  -0.18708
   2        2S         -0.00052   0.00000   0.00000   0.10095   0.16465
   3        2PX         0.08214   0.00007  -0.00002   0.00066   0.03598
   4        2PY         0.00007  -0.08208   0.00637   0.00000   0.00008
   5        2PZ        -0.00029   0.00000  -0.00000   0.36079  -0.30416
   6        3S          0.00337  -0.00001  -0.00000   0.69255   1.98826
   7        3PX        -0.07478  -0.00006   0.00001  -0.00101   0.11225
   8        3PY        -0.00006   0.07103  -0.00483  -0.00000   0.00027
   9        3PZ        -0.00222   0.00000  -0.00000   0.52849  -0.94284
  10 2   Cl 1S         -0.00015  -0.00021  -0.00002  -0.00565  -0.01517
  11        2S          0.00082   0.00110   0.00016   0.03473   0.09688
  12        2PX         0.12407   0.02356   0.14769  -0.02073  -0.04917
  13        2PY        -0.01226  -0.13214   0.09534   0.03508   0.09011
  14        2PZ         0.07495   0.12774  -0.00489   0.08338  -0.00058
  15        3S         -0.00637  -0.01064   0.00029  -0.05616  -0.05760
  16        3PX        -0.27232  -0.05081  -0.32507   0.04601   0.10040
  17        3PY         0.02599   0.28898  -0.20973  -0.07788  -0.18435
  18        3PZ        -0.16409  -0.27963   0.01075  -0.18069   0.00422
  19        4S          0.02513   0.04380  -0.00311  -0.06438  -0.69997
  20        4PX        -0.22496  -0.05756  -0.26852   0.05340   0.35376
  21        4PY         0.03683   0.25689  -0.17499  -0.09019  -0.64409
  22        4PZ        -0.13366  -0.22852   0.00845  -0.26054  -0.03370
  23 3   Cl 1S          0.00017  -0.00000   0.00000  -0.00568  -0.01329
  24        2S         -0.00080   0.00000  -0.00000   0.03491   0.08497
  25        2PX         0.14395   0.00009   0.00022   0.04008   0.09275
  26        2PY         0.00012  -0.12352  -0.15906   0.00006   0.00014
  27        2PZ        -0.14465   0.00010   0.00001   0.08402  -0.00735
  28        3S          0.01178  -0.00001  -0.00000  -0.05647  -0.04963
  29        3PX        -0.31462  -0.00019  -0.00049  -0.08911  -0.19013
  30        3PY        -0.00026   0.27184   0.35031  -0.00013  -0.00029
  31        3PZ         0.31675  -0.00021  -0.00001  -0.18216   0.01845
  32        4S         -0.05400   0.00004   0.00000  -0.06562  -0.61014
  33        4PX        -0.28753  -0.00012  -0.00041  -0.10329  -0.66019
  34        4PY        -0.00026   0.21567   0.29022  -0.00015  -0.00099
  35        4PZ         0.25788  -0.00017  -0.00001  -0.26344   0.00672
  36 4   Cl 1S         -0.00015   0.00021   0.00002  -0.00565  -0.01517
  37        2S          0.00082  -0.00110  -0.00016   0.03473   0.09689
  38        2PX         0.12398  -0.02333  -0.14799  -0.02063  -0.04891
  39        2PY         0.01246  -0.13223   0.09490  -0.03514  -0.09027
  40        2PZ         0.07478  -0.12785   0.00488   0.08338  -0.00058
  41        3S         -0.00636   0.01064  -0.00029  -0.05616  -0.05760
  42        3PX        -0.27213   0.05032   0.32574   0.04578   0.09987
  43        3PY        -0.02644   0.28918  -0.20877   0.07801   0.18466
  44        3PZ        -0.16372   0.27986  -0.01074  -0.18069   0.00421
  45        4S          0.02507  -0.04383   0.00311  -0.06438  -0.70006
  46        4PX        -0.22474   0.05710   0.26908   0.05314   0.35190
  47        4PY        -0.03717   0.25711  -0.17420   0.09035   0.64520
  48        4PZ        -0.13335   0.22871  -0.00844  -0.26053  -0.03374
                          31        32        33        34        35
                           V         V         V         V         V
     Eigenvalues --     0.17699   0.18013   0.56301   0.56385   0.57087
   1 1   B  1S          0.00002   0.01374  -0.00345  -0.00001   0.04553
   2        2S         -0.00002  -0.01184   0.02694   0.00004  -0.31982
   3        2PX        -0.00044   0.47002  -1.08424   0.00123  -0.04488
   4        2PY         0.47225   0.00044  -0.00122  -1.08337  -0.00013
   5        2PZ         0.00003   0.02254   0.03891   0.00008  -1.05846
   6        3S         -0.00022  -0.16128   0.02096   0.00004  -0.25023
   7        3PX        -0.00148   1.59593   1.79583  -0.00204   0.07253
   8        3PY         1.57549   0.00149   0.00202   1.79166   0.00022
   9        3PZ         0.00010   0.07350  -0.05351  -0.00010   1.26711
  10 2   Cl 1S          0.01611  -0.00825  -0.00216   0.00504  -0.00612
  11        2S         -0.10279   0.05267   0.01483  -0.03345   0.03647
  12        2PX         0.06248   0.01949   0.05909  -0.00839   0.00004
  13        2PY        -0.05470   0.05549  -0.00898   0.06857   0.00435
  14        2PZ        -0.05128   0.03003   0.00941  -0.01747   0.03771
  15        3S          0.07015  -0.03590  -0.02473   0.08163  -0.19067
  16        3PX        -0.12699  -0.04353  -0.16573   0.01273   0.00175
  17        3PY         0.10733  -0.11259   0.01541  -0.18012  -0.01603
  18        3PZ         0.10817  -0.06357  -0.03702   0.06757  -0.11343
  19        4S          0.80202  -0.42063  -0.36951   0.57399   0.38435
  20        4PX        -0.47574  -0.08603  -0.04846  -0.23133  -0.09867
  21        4PY         0.47761  -0.43009  -0.24413   0.20708   0.15647
  22        4PZ         0.31838  -0.18525  -0.04880   0.08793  -0.07015
  23 3   Cl 1S          0.00001   0.01989   0.00626   0.00000  -0.00572
  24        2S         -0.00007  -0.12705  -0.04115  -0.00002   0.03383
  25        2PX        -0.00014  -0.09703   0.07195  -0.00006   0.00804
  26        2PY         0.05289  -0.00017   0.00009   0.05434   0.00002
  27        2PZ        -0.00003  -0.05917  -0.02147  -0.00001   0.03629
  28        3S          0.00005   0.08607   0.11421   0.00007  -0.18294
  29        3PX         0.00028   0.19324  -0.17994   0.00018  -0.02522
  30        3PY        -0.11145   0.00034  -0.00021  -0.15891  -0.00005
  31        3PZ         0.00007   0.12459   0.08284   0.00003  -0.10833
  32        4S          0.00057   1.00078   0.63642   0.00017   0.42583
  33        4PX         0.00098   0.81589   0.31239   0.00037   0.20434
  34        4PY        -0.34144   0.00139   0.00053  -0.19106   0.00029
  35        4PZ         0.00020   0.37729   0.10190   0.00004  -0.06511
  36 4   Cl 1S         -0.01611  -0.00823  -0.00216  -0.00504  -0.00612
  37        2S          0.10283   0.05256   0.01481   0.03345   0.03648
  38        2PX        -0.06229   0.01972   0.05906   0.00823   0.00005
  39        2PY        -0.05493  -0.05538   0.00911   0.06860  -0.00434
  40        2PZ         0.05131   0.02997   0.00939   0.01747   0.03771
  41        3S         -0.07018  -0.03583  -0.02468  -0.08159  -0.19068
  42        3PX         0.12661  -0.04400  -0.16567  -0.01232   0.00170
  43        3PY         0.10780   0.11234  -0.01578  -0.18017   0.01601
  44        3PZ        -0.10824  -0.06345  -0.03697  -0.06759  -0.11344
  45        4S         -0.80238  -0.41973  -0.36910  -0.57434   0.38428
  46        4PX         0.47418  -0.08783  -0.04934   0.23070  -0.09818
  47        4PY         0.47940   0.42930   0.24384   0.20798  -0.15674
  48        4PZ        -0.31857  -0.18489  -0.04874  -0.08796  -0.07016
                          36        37        38        39        40
                           V         V         V         V         V
     Eigenvalues --     0.64134   0.73096   0.73167   0.74883   0.74885
   1 1   B  1S          0.06095   0.00077  -0.00000  -0.00033   0.00000
   2        2S         -0.59292  -0.00648   0.00002  -0.00228   0.00000
   3        2PX        -0.01465  -0.14709  -0.00013  -0.02299   0.00008
   4        2PY        -0.00004  -0.00012   0.15575  -0.00009  -0.02013
   5        2PZ         0.23231   0.00167  -0.00000  -0.00782   0.00001
   6        3S         -0.27102   0.03182  -0.00007  -0.09710   0.00011
   7        3PX         0.02402   0.94035   0.00077   0.39464  -0.00155
   8        3PY         0.00006   0.00074  -0.95150   0.00157   0.38862
   9        3PZ         0.04756  -0.00937   0.00002   0.05478  -0.00006
  10 2   Cl 1S         -0.03380   0.01980   0.03466  -0.00501   0.01023
  11        2S          0.20580  -0.12001  -0.21019   0.03101  -0.06359
  12        2PX         0.00482  -0.09519  -0.01574  -0.14572  -0.16080
  13        2PY        -0.00527   0.01260   0.11738  -0.14791   0.05029
  14        2PZ        -0.06141   0.05610   0.09678   0.03034  -0.06221
  15        3S         -0.95934   0.57465   1.00181  -0.12358   0.24335
  16        3PX         0.00098   0.34294   0.04810   0.50632   0.55964
  17        3PY        -0.01111  -0.03719  -0.41282   0.51401  -0.17635
  18        3PZ         0.19719  -0.19040  -0.32865  -0.10397   0.21412
  19        4S          1.00698  -0.78122  -1.34570   0.05151  -0.07160
  20        4PX        -0.09183  -0.39910   0.13456  -0.49089  -0.59455
  21        4PY         0.15734  -0.14799   0.26693  -0.53129   0.24080
  22        4PZ        -0.11753   0.10482   0.18298   0.06757  -0.15154
  23 3   Cl 1S         -0.03315  -0.04030   0.00003   0.01157  -0.00003
  24        2S          0.20173   0.24447  -0.00017  -0.07215   0.00018
  25        2PX        -0.00448  -0.13416  -0.00003   0.15772  -0.00003
  26        2PY        -0.00000  -0.00014   0.09050  -0.00035  -0.23189
  27        2PZ        -0.06250  -0.11200   0.00007  -0.07901   0.00019
  28        3S         -0.94710  -1.16199   0.00079   0.26696  -0.00067
  29        3PX        -0.01860   0.46725   0.00014  -0.55117   0.00012
  30        3PY        -0.00003   0.00046  -0.33089   0.00120   0.80634
  31        3PZ         0.20100   0.38035  -0.00025   0.27252  -0.00065
  32        4S          1.01554   1.55182  -0.00104  -0.03636   0.00013
  33        4PX         0.20032  -0.22175  -0.00055   0.65843  -0.00036
  34        4PY         0.00030   0.00001   0.50002  -0.00104  -0.80345
  35        4PZ        -0.11645  -0.21247   0.00014  -0.19870   0.00047
  36 4   Cl 1S         -0.03380   0.01976  -0.03469  -0.00506  -0.01020
  37        2S          0.20581  -0.11973   0.21035   0.03133   0.06342
  38        2PX         0.00480  -0.09513   0.01551  -0.14535   0.16135
  39        2PY         0.00529  -0.01273   0.11743   0.14772   0.04999
  40        2PZ        -0.06141   0.05597  -0.09686   0.03065   0.06204
  41        3S         -0.95936   0.57329  -1.00258  -0.12478  -0.24270
  42        3PX         0.00095   0.34277  -0.04732   0.50503  -0.56157
  43        3PY         0.01110   0.03765  -0.41298  -0.51338  -0.17530
  44        3PZ         0.19719  -0.18995   0.32890  -0.10505  -0.21354
  45        4S          1.00697  -0.77939   1.34677   0.05184   0.07139
  46        4PX        -0.09135  -0.39972  -0.13484  -0.48947   0.59618
  47        4PY        -0.15759   0.14717   0.26627   0.53103   0.23973
  48        4PZ        -0.11753   0.10457  -0.18312   0.06833   0.15115
                          41        42        43        44        45
                           V         V         V         V         V
     Eigenvalues --     0.75524   0.81052   0.84339   0.84403   0.88913
   1 1   B  1S         -0.00054  -0.00498  -0.00009  -0.00000   0.00000
   2        2S         -0.03967  -0.11061  -0.00406  -0.00001   0.00000
   3        2PX         0.00694   0.00629  -0.20544   0.00015   0.00000
   4        2PY         0.00002   0.00001  -0.00016  -0.20401  -0.00028
   5        2PZ         0.07981  -0.22194   0.00063   0.00000   0.00000
   6        3S          1.20501   1.45083  -0.01676  -0.00003  -0.00000
   7        3PX         0.00600  -0.01501   1.22851  -0.00092  -0.00003
   8        3PY         0.00002  -0.00003   0.00093   1.21156   0.01199
   9        3PZ        -0.63945   0.25192   0.00398   0.00001   0.00000
  10 2   Cl 1S         -0.00628   0.01032   0.00434  -0.00762  -0.00013
  11        2S          0.04098  -0.06057  -0.02502   0.04391   0.00077
  12        2PX         0.08365   0.04072  -0.08970  -0.03206  -0.17468
  13        2PY        -0.17562  -0.06961  -0.03204  -0.05021  -0.09978
  14        2PZ         0.07368  -0.17313  -0.12547   0.21702   0.00086
  15        3S         -0.08227   0.39537   0.17452  -0.30554  -0.00506
  16        3PX        -0.29643  -0.15161   0.33433   0.12006   0.63752
  17        3PY         0.61934   0.25870   0.11978   0.18677   0.36417
  18        3PZ        -0.25951   0.62256   0.45119  -0.78050  -0.00319
  19        4S         -0.26146  -0.67649  -0.46122   0.79682   0.01033
  20        4PX         0.42711   0.27714  -0.43432  -0.34709  -0.72159
  21        4PY        -0.83249  -0.46770  -0.34616  -0.02836  -0.40893
  22        4PZ         0.25318  -0.76639  -0.56013   0.96684   0.00510
  23 3   Cl 1S         -0.00327   0.01089  -0.00905  -0.00001   0.00000
  24        2S          0.02254  -0.06399   0.05221   0.00004  -0.00000
  25        2PX        -0.17220  -0.07977  -0.03109   0.00014  -0.00030
  26        2PY        -0.00028  -0.00012   0.00003  -0.10861   0.19888
  27        2PZ         0.07076  -0.17087   0.24982   0.00018  -0.00000
  28        3S         -0.00152   0.41442  -0.36249  -0.00026   0.00001
  29        3PX         0.60882   0.29690   0.11534  -0.00052   0.00108
  30        3PY         0.00098   0.00044  -0.00012   0.40525  -0.72607
  31        3PZ        -0.24969   0.61491  -0.89893  -0.00065   0.00000
  32        4S         -0.34016  -0.71083   0.94855   0.00068  -0.00001
  33        4PX        -0.86157  -0.54926   0.18174   0.00108  -0.00122
  34        4PY        -0.00135  -0.00081   0.00073  -0.63951   0.81887
  35        4PZ         0.24661  -0.76448   1.12032   0.00081  -0.00001
  36 4   Cl 1S         -0.00629   0.01032   0.00433   0.00762   0.00013
  37        2S          0.04101  -0.06057  -0.02495  -0.04395  -0.00077
  38        2PX         0.08317   0.04051  -0.08984   0.03208   0.17497
  39        2PY         0.17588   0.06973   0.03184  -0.05007  -0.09927
  40        2PZ         0.07368  -0.17314  -0.12515  -0.21719  -0.00086
  41        3S         -0.08239   0.39535   0.17407   0.30578   0.00505
  42        3PX        -0.29473  -0.15084   0.33485  -0.12012  -0.63860
  43        3PY        -0.62027  -0.25915  -0.11906   0.18625   0.36229
  44        3PZ        -0.25953   0.62258   0.45007   0.78115   0.00318
  45        4S         -0.26134  -0.67646  -0.46005  -0.79744  -0.01031
  46        4PX         0.42477   0.27575  -0.43584   0.34653   0.72280
  47        4PY         0.83381   0.46851   0.34491  -0.02685  -0.40682
  48        4PZ         0.25320  -0.76640  -0.55873  -0.96764  -0.00509
                          46        47        48
                           V         V         V
     Eigenvalues --     1.01871   1.02083   1.17086
   1 1   B  1S         -0.00201   0.00000  -0.09669
   2        2S         -0.02161   0.00004  -2.00869
   3        2PX         0.17855   0.00014  -0.00843
   4        2PY         0.00014  -0.18416  -0.00002
   5        2PZ         0.00067  -0.00000   0.22472
   6        3S          0.03780  -0.00007   5.04686
   7        3PX         0.94465   0.00070  -0.00166
   8        3PY         0.00074  -0.91831  -0.00000
   9        3PZ        -0.01042   0.00002  -1.59837
  10 2   Cl 1S          0.01908   0.03266   0.01436
  11        2S         -0.11477  -0.19665  -0.07821
  12        2PX         0.10633   0.06040  -0.00376
  13        2PY        -0.06056  -0.17598   0.00710
  14        2PZ        -0.01701  -0.02946   0.02637
  15        3S          0.67790   1.15750   0.75107
  16        3PX        -0.40392  -0.24412   0.00615
  17        3PY         0.24456   0.68567  -0.01322
  18        3PZ         0.06901   0.11960  -0.11484
  19        4S         -1.00420  -1.69184  -2.05405
  20        4PX         0.51434   0.53219   0.50135
  21        4PY        -0.54216  -1.12163  -0.85138
  22        4PZ        -0.16979  -0.28858   0.08643
  23 3   Cl 1S         -0.03766   0.00003   0.01500
  24        2S          0.22674  -0.00016  -0.08212
  25        2PX         0.20965  -0.00005   0.00390
  26        2PY         0.00026  -0.06957   0.00001
  27        2PZ         0.03453  -0.00002   0.02567
  28        3S         -1.33563   0.00094   0.77269
  29        3PX        -0.82212   0.00020   0.00037
  30        3PY        -0.00104   0.25605  -0.00000
  31        3PZ        -0.14050   0.00010  -0.11270
  32        4S          1.96181  -0.00136  -2.09775
  33        4PX         1.42500  -0.00071  -1.01493
  34        4PY         0.00197  -0.19279  -0.00149
  35        4PZ         0.34257  -0.00024   0.08350
  36 4   Cl 1S          0.01903  -0.03269   0.01435
  37        2S         -0.11449   0.19682  -0.07821
  38        2PX         0.10607  -0.06003  -0.00374
  39        2PY         0.06062  -0.17624  -0.00711
  40        2PZ        -0.01697   0.02948   0.02637
  41        3S          0.67627  -1.15847   0.75104
  42        3PX        -0.40286   0.24266   0.00613
  43        3PY        -0.24478   0.68674   0.01326
  44        3PZ         0.06884  -0.11969  -0.11484
  45        4S         -1.00180   1.69328  -2.05400
  46        4PX         0.51200  -0.52959   0.49880
  47        4PY         0.54208  -1.12398   0.85283
  48        4PZ        -0.16938   0.28881   0.08644
     Density Matrix:
                           1         2         3         4         5
   1 1   B  1S          2.02605
   2        2S          0.09594   0.13320
   3        2PX         0.00043  -0.00131   0.22519
   4        2PY         0.00000  -0.00000   0.00000   0.22231
   5        2PZ         0.01485  -0.01681   0.00078   0.00000   0.05533
   6        3S         -0.32608   0.22567   0.00192   0.00000  -0.06426
   7        3PX        -0.00070   0.00038   0.09148  -0.00000  -0.00014
   8        3PY        -0.00000   0.00000  -0.00000   0.09279  -0.00000
   9        3PZ         0.04766  -0.01321  -0.00029  -0.00000   0.06244
  10 2   Cl 1S         -0.00065   0.00703   0.00316  -0.00541  -0.00171
  11        2S          0.00472  -0.01992  -0.01736   0.02982   0.00795
  12        2PX        -0.01965   0.02359   0.02064  -0.06089  -0.01482
  13        2PY         0.03350  -0.04028  -0.06060   0.08888   0.02548
  14        2PZ         0.01758  -0.02527  -0.02430   0.04173  -0.03892
  15        3S         -0.02129   0.01482   0.01967  -0.03369  -0.01498
  16        3PX         0.04132  -0.04918  -0.04573   0.12819   0.03109
  17        3PY        -0.07038   0.08422   0.12760  -0.18943  -0.05352
  18        3PZ        -0.03504   0.05728   0.04999  -0.08586   0.08279
  19        4S          0.08117  -0.04413  -0.00132   0.00143   0.02456
  20        4PX         0.00482  -0.01824  -0.05000   0.08170   0.01316
  21        4PY        -0.00801   0.03131   0.08097  -0.14185  -0.02285
  22        4PZ        -0.02563   0.04123   0.03430  -0.05900   0.06539
  23 3   Cl 1S         -0.00073   0.00720  -0.00648  -0.00001  -0.00180
  24        2S          0.00515  -0.02062   0.03545   0.00005   0.00838
  25        2PX         0.03927  -0.04803   0.12538   0.00021   0.03078
  26        2PY         0.00006  -0.00007   0.00021  -0.01584   0.00005
  27        2PZ         0.01781  -0.02585   0.04903   0.00007  -0.03954
  28        3S         -0.02192   0.01557  -0.04031  -0.00006  -0.01547
  29        3PX        -0.08260   0.10004  -0.26593  -0.00044  -0.06452
  30        3PY        -0.00012   0.00015  -0.00044   0.03107  -0.00010
  31        3PZ        -0.03552   0.05848  -0.10077  -0.00015   0.08418
  32        4S          0.08160  -0.04424   0.00147   0.00000   0.02452
  33        4PX        -0.00931   0.03745  -0.18958  -0.00028  -0.02815
  34        4PY        -0.00001   0.00006  -0.00028  -0.00144  -0.00004
  35        4PZ        -0.02591   0.04194  -0.06875  -0.00010   0.06642
  36 4   Cl 1S         -0.00065   0.00703   0.00314   0.00542  -0.00171
  37        2S          0.00472  -0.01992  -0.01727  -0.02987   0.00795
  38        2PX        -0.01955   0.02347   0.02028   0.06069  -0.01474
  39        2PY        -0.03356   0.04035   0.06040   0.08924  -0.02552
  40        2PZ         0.01758  -0.02527  -0.02418  -0.04180  -0.03892
  41        3S         -0.02129   0.01482   0.01957   0.03375  -0.01498
  42        3PX         0.04111  -0.04893  -0.04498  -0.12776   0.03093
  43        3PY         0.07050  -0.08437  -0.12717  -0.19019   0.05361
  44        3PZ        -0.03504   0.05728   0.04974   0.08600   0.08279
  45        4S          0.08117  -0.04413  -0.00132  -0.00144   0.02456
  46        4PX         0.00480  -0.01815  -0.04952  -0.08143   0.01309
  47        4PY         0.00802  -0.03136  -0.08070  -0.14233   0.02289
  48        4PZ        -0.02563   0.04123   0.03413   0.05910   0.06539
                           6         7         8         9        10
   6        3S          0.57702
   7        3PX         0.00191   0.07806
   8        3PY         0.00001  -0.00000   0.07837
   9        3PZ        -0.08142  -0.00021  -0.00000   0.07366
  10 2   Cl 1S         -0.03803  -0.01280   0.02187   0.00903   2.14428
  11        2S          0.11841   0.03915  -0.06678  -0.02457  -0.57421
  12        2PX         0.05095  -0.02483  -0.02630  -0.01450  -0.00243
  13        2PY        -0.08585  -0.02638   0.00535   0.02470   0.00411
  14        2PZ        -0.03359  -0.01798   0.03065  -0.03507   0.00228
  15        3S         -0.05075  -0.02068   0.03540   0.00161  -0.02871
  16        3PX        -0.13220   0.06685   0.08222   0.03786   0.00653
  17        3PY         0.22212   0.08233  -0.02712  -0.06418  -0.01109
  18        3PZ         0.06832   0.05478  -0.09322   0.09628  -0.00578
  19        4S         -0.21893  -0.04417   0.07434   0.04916   0.16552
  20        4PX        -0.04824   0.04978   0.04729   0.01594  -0.00902
  21        4PY         0.07867   0.04710  -0.00498  -0.02677   0.01546
  22        4PZ         0.04458   0.03853  -0.06558   0.07551   0.00433
  23 3   Cl 1S         -0.03891   0.02579   0.00004   0.00930   0.00001
  24        2S          0.12113  -0.07866  -0.00012  -0.02539   0.00003
  25        2PX        -0.09769   0.01914   0.00009   0.02841   0.00101
  26        2PY        -0.00014   0.00009  -0.03985   0.00004  -0.00118
  27        2PZ        -0.03305   0.03544   0.00005  -0.03528  -0.00014
  28        3S         -0.05194   0.04147   0.00006   0.00197   0.00132
  29        3PX         0.25555  -0.07212  -0.00027  -0.07460  -0.00157
  30        3PY         0.00037  -0.00028   0.11435  -0.00011   0.00239
  31        3PZ         0.06770  -0.10849  -0.00016   0.09675   0.00054
  32        4S         -0.22224   0.08701   0.00013   0.05016  -0.00069
  33        4PX         0.08797  -0.03002  -0.00016  -0.03075  -0.00191
  34        4PY         0.00013  -0.00016   0.07619  -0.00004   0.00091
  35        4PZ         0.04371  -0.07596  -0.00011   0.07571  -0.00117
  36 4   Cl 1S         -0.03803  -0.01274  -0.02190   0.00903   0.00001
  37        2S          0.11841   0.03895   0.06690  -0.02457   0.00004
  38        2PX         0.05070  -0.02498   0.02621  -0.01442   0.00050
  39        2PY         0.08600   0.02629   0.00550  -0.02474  -0.00148
  40        2PZ        -0.03359  -0.01789  -0.03070  -0.03507  -0.00013
  41        3S         -0.05075  -0.02058  -0.03546   0.00161   0.00134
  42        3PX        -0.13154   0.06733  -0.08194   0.03767  -0.00125
  43        3PY        -0.22251  -0.08205  -0.02761   0.06429   0.00257
  44        3PZ         0.06832   0.05450   0.09338   0.09628   0.00051
  45        4S         -0.21892  -0.04395  -0.07447   0.04916  -0.00074
  46        4PX        -0.04801   0.05006  -0.04713   0.01586   0.00013
  47        4PY        -0.07882  -0.04694  -0.00526   0.02682   0.00226
  48        4PZ         0.04458   0.03833   0.06569   0.07551  -0.00114
                          11        12        13        14        15
  11        2S          2.39411
  12        2PX         0.01321   2.04780
  13        2PY        -0.02238   0.01816   2.02766
  14        2PZ        -0.01288   0.00981  -0.01665   2.03952
  15        3S         -0.29201  -0.02061   0.03476   0.02176   0.76219
  16        3PX        -0.03083  -0.17201  -0.04077  -0.02218   0.03002
  17        3PY         0.05223  -0.04079  -0.12678   0.03764  -0.05032
  18        3PZ         0.02945  -0.02204   0.03739  -0.15236  -0.03740
  19        4S         -0.68555  -0.02165   0.03711   0.02067   0.63485
  20        4PX         0.01368  -0.30872  -0.03962  -0.02082   0.01395
  21        4PY        -0.02369  -0.03953  -0.26483   0.03540  -0.02310
  22        4PZ        -0.00110  -0.01885   0.03210  -0.29981  -0.02130
  23 3   Cl 1S          0.00003  -0.00153   0.00029  -0.00014   0.00130
  24        2S         -0.00111   0.01032  -0.00236   0.00078  -0.00175
  25        2PX        -0.00718   0.01586  -0.00823  -0.00094   0.00037
  26        2PY         0.00774  -0.01075   0.00496   0.00233  -0.00416
  27        2PZ         0.00079   0.00249   0.00030  -0.01113   0.00105
  28        3S         -0.00180  -0.00389  -0.00174   0.00101   0.00089
  29        3PX         0.01462  -0.03458   0.01743   0.00197  -0.00802
  30        3PY        -0.01698   0.02404  -0.01038  -0.00427   0.01226
  31        3PZ        -0.00239  -0.00498  -0.00012   0.02434  -0.00506
  32        4S          0.00278  -0.05449   0.01875  -0.01172  -0.00644
  33        4PX         0.01158  -0.05870   0.02866  -0.00638  -0.00766
  34        4PY        -0.01007   0.03192  -0.01556  -0.01127   0.00721
  35        4PZ         0.00198  -0.00952  -0.00611   0.02512  -0.00454
  36 4   Cl 1S          0.00004   0.00050   0.00148  -0.00013   0.00134
  37        2S         -0.00120  -0.00302  -0.01020   0.00073  -0.00180
  38        2PX        -0.00305  -0.00058  -0.00112  -0.00142   0.00348
  39        2PY         0.01019   0.00106   0.02141   0.00207  -0.00248
  40        2PZ         0.00073  -0.00142  -0.00207  -0.01111   0.00098
  41        3S         -0.00180   0.00347   0.00249   0.00098   0.00083
  42        3PX         0.00722   0.00163   0.00285   0.00244  -0.00678
  43        3PY        -0.02135  -0.00301  -0.04656  -0.00402   0.01355
  44        3PZ        -0.00225   0.00240   0.00438   0.02429  -0.00490
  45        4S          0.00299   0.01018   0.05662  -0.01117  -0.00653
  46        4PX         0.00293   0.00014  -0.00236   0.01251  -0.00258
  47        4PY        -0.01567  -0.00446  -0.07444  -0.00048   0.01083
  48        4PZ         0.00196   0.00969   0.00548   0.02519  -0.00439
                          16        17        18        19        20
  16        3PX         0.72913
  17        3PY         0.08611   0.63369
  18        3PZ         0.04748  -0.08050   0.68135
  19        4S          0.07997  -0.13667  -0.06948   0.69386
  20        4PX         0.55544   0.10262   0.05260   0.02227   0.45024
  21        4PY         0.10244   0.44165  -0.08948  -0.03794   0.09419
  22        4PZ         0.04876  -0.08308   0.53705  -0.03604   0.04759
  23 3   Cl 1S          0.00286  -0.00017   0.00054  -0.00065   0.00173
  24        2S         -0.02206   0.00421  -0.00238   0.00263  -0.01451
  25        2PX        -0.03427   0.01758   0.00228   0.04321  -0.05232
  26        2PY         0.02415  -0.01061  -0.00441  -0.03739   0.03557
  27        2PZ        -0.00468  -0.00031   0.02433  -0.01180  -0.00631
  28        3S          0.01491  -0.00096  -0.00502  -0.00634   0.01036
  29        3PX         0.07934  -0.03978  -0.00485  -0.08368   0.10820
  30        3PY        -0.05817   0.02287   0.00638   0.08679  -0.07468
  31        3PZ         0.00803  -0.00128  -0.05391   0.04109   0.01417
  32        4S          0.11801  -0.02871   0.04113   0.02868   0.07444
  33        4PX         0.12397  -0.05596   0.02153  -0.04026   0.12272
  34        4PY        -0.06546   0.03328   0.02944   0.06166  -0.07241
  35        4PZ         0.02339   0.01584  -0.05337   0.03024   0.02396
  36 4   Cl 1S         -0.00124  -0.00257   0.00051  -0.00074   0.00013
  37        2S          0.00716   0.02138  -0.00225   0.00299   0.00289
  38        2PX         0.00163   0.00315   0.00241   0.01035   0.00012
  39        2PY        -0.00271  -0.04656  -0.00437  -0.05659   0.00258
  40        2PZ         0.00242   0.00403   0.02429  -0.01117   0.01251
  41        3S         -0.00674  -0.01357  -0.00490  -0.00653  -0.00255
  42        3PX        -0.00567  -0.00861  -0.00251  -0.03229   0.00290
  43        3PY         0.00828   0.10792   0.00782   0.11616  -0.00563
  44        3PZ        -0.00249  -0.00782  -0.05381   0.03947  -0.03521
  45        4S         -0.03194  -0.11625   0.03947   0.02837  -0.03222
  46        4PX         0.00285   0.00518  -0.03520  -0.03242   0.01106
  47        4PY         0.01200   0.15423  -0.00297   0.06647   0.00609
  48        4PZ        -0.02460  -0.01298  -0.05358   0.02914  -0.04493
                          21        22        23        24        25
  21        4PY         0.34598
  22        4PZ        -0.08122   0.44242
  23 3   Cl 1S         -0.00120  -0.00120   2.14428
  24        2S          0.00504   0.00208  -0.57419   2.39404
  25        2PX         0.03215  -0.00045   0.00480  -0.02612   2.01732
  26        2PY        -0.02168  -0.01129   0.00001  -0.00004  -0.00006
  27        2PZ        -0.01111   0.02511   0.00231  -0.01302  -0.01921
  28        3S         -0.00313  -0.00457  -0.02889  -0.29172   0.04034
  29        3PX        -0.06498   0.00188  -0.01293   0.06095  -0.10368
  30        3PY         0.04869   0.02817  -0.00002   0.00009   0.00014
  31        3PZ         0.03316  -0.05337  -0.00584   0.02977   0.04316
  32        4S         -0.00397   0.03026   0.16637  -0.68764   0.04332
  33        4PX        -0.05639   0.02140   0.01822  -0.02801  -0.24112
  34        4PY         0.04888   0.04067   0.00003  -0.00004   0.00013
  35        4PZ         0.03893  -0.05215   0.00447  -0.00134   0.03721
  36 4   Cl 1S         -0.00226  -0.00114   0.00001   0.00003   0.00101
  37        2S          0.01568   0.00196   0.00003  -0.00111  -0.00715
  38        2PX         0.00468   0.00971  -0.00153   0.01031   0.01581
  39        2PY        -0.07442  -0.00545  -0.00029   0.00239   0.00826
  40        2PZ         0.00052   0.02519  -0.00014   0.00078  -0.00094
  41        3S         -0.01084  -0.00439   0.00130  -0.00175   0.00035
  42        3PX        -0.01245  -0.02464   0.00286  -0.02204  -0.03415
  43        3PY         0.15418   0.01291   0.00018  -0.00428  -0.01765
  44        3PZ         0.00287  -0.05358   0.00054  -0.00238   0.00227
  45        4S         -0.06657   0.02914  -0.00065   0.00264   0.04310
  46        4PX        -0.00653  -0.04494   0.00172  -0.01450  -0.05212
  47        4PY         0.16078   0.00262   0.00121  -0.00509  -0.03224
  48        4PZ        -0.00276  -0.05254  -0.00120   0.00208  -0.00048
                          26        27        28        29        30
  26        2PY         2.05855
  27        2PZ        -0.00003   2.03943
  28        3S          0.00006   0.02198   0.76261
  29        3PX         0.00014   0.04346  -0.05823   0.58522
  30        3PY        -0.19623   0.00006  -0.00008  -0.00029   0.78058
  31        3PZ         0.00006  -0.15224  -0.03773  -0.09295  -0.00014
  32        4S          0.00006   0.02084   0.63521  -0.16025  -0.00024
  33        4PX         0.00013   0.04098  -0.02666   0.38026  -0.00034
  34        4PY        -0.33166   0.00006  -0.00004  -0.00034   0.61501
  35        4PZ         0.00005  -0.29910  -0.02144  -0.09644  -0.00014
  36 4   Cl 1S          0.00118  -0.00014   0.00132  -0.00156  -0.00240
  37        2S         -0.00776   0.00079  -0.00180   0.01457   0.01702
  38        2PX         0.01079   0.00249  -0.00389  -0.03446  -0.02411
  39        2PY         0.00501  -0.00029   0.00173  -0.01751  -0.01050
  40        2PZ        -0.00234  -0.01113   0.00101   0.00195   0.00427
  41        3S          0.00416   0.00105   0.00089  -0.00799  -0.01228
  42        3PX        -0.02422  -0.00468   0.01491   0.07905   0.05833
  43        3PY        -0.01073   0.00030   0.00100   0.03995   0.02316
  44        3PZ         0.00442   0.02433  -0.00502  -0.00483  -0.00639
  45        4S          0.03751  -0.01180  -0.00634  -0.08343  -0.08703
  46        4PX        -0.03565  -0.00635   0.01035   0.10778   0.07485
  47        4PY        -0.02188   0.01109   0.00316   0.06516   0.04911
  48        4PZ         0.01129   0.02511  -0.00457   0.00196  -0.02816
                          31        32        33        34        35
  31        3PZ         0.68136
  32        4S         -0.07047   0.69691
  33        4PX        -0.10371  -0.04395   0.28836
  34        4PY        -0.00015  -0.00006  -0.00032   0.50418
  35        4PZ         0.53533  -0.03628  -0.09422  -0.00014   0.43977
  36 4   Cl 1S          0.00054  -0.00069  -0.00190  -0.00091  -0.00117
  37        2S         -0.00239   0.00278   0.01156   0.01010   0.00198
  38        2PX        -0.00498  -0.05443  -0.05852  -0.03204  -0.00954
  39        2PY         0.00010  -0.01891  -0.02879  -0.01574   0.00608
  40        2PZ         0.02434  -0.01172  -0.00642   0.01126   0.02512
  41        3S         -0.00506  -0.00644  -0.00764  -0.00723  -0.00454
  42        3PX         0.00802   0.11793   0.12361   0.06572   0.02344
  43        3PY         0.00131   0.02906   0.05623   0.03364  -0.01577
  44        3PZ        -0.05391   0.04113   0.02162  -0.02938  -0.05337
  45        4S          0.04109   0.02868  -0.04008  -0.06178   0.03024
  46        4PX         0.01427   0.07443   0.12234   0.07263   0.02408
  47        4PY        -0.03311   0.00419   0.05662   0.04926  -0.03885
  48        4PZ        -0.05337   0.03026   0.02152  -0.04061  -0.05215
                          36        37        38        39        40
  36 4   Cl 1S          2.14428
  37        2S         -0.57421   2.39411
  38        2PX        -0.00241   0.01315   2.04791
  39        2PY        -0.00412   0.02242  -0.01810   2.02755
  40        2PZ         0.00228  -0.01288   0.00976   0.01668   2.03952
  41        3S         -0.02871  -0.29201  -0.02051  -0.03482   0.02176
  42        3PX         0.00650  -0.03067  -0.17225   0.04064  -0.02207
  43        3PY         0.01111  -0.05232   0.04065  -0.12653  -0.03770
  44        3PZ        -0.00578   0.02945  -0.02193  -0.03746  -0.15236
  45        4S          0.16552  -0.68555  -0.02154  -0.03717   0.02067
  46        4PX        -0.00898   0.01360  -0.30895   0.03949  -0.02072
  47        4PY        -0.01549   0.02373   0.03940  -0.26460  -0.03546
  48        4PZ         0.00433  -0.00110  -0.01875  -0.03216  -0.29981
                          41        42        43        44        45
  41        3S          0.76219
  42        3PX         0.02987   0.72964
  43        3PY         0.05041  -0.08583   0.63318
  44        3PZ        -0.03740   0.04724   0.08064   0.68135
  45        4S          0.63485   0.07957   0.13691  -0.06948   0.69385
  46        4PX         0.01388   0.55605  -0.10228   0.05234   0.02216
  47        4PY         0.02314  -0.10210   0.44104   0.08963   0.03801
  48        4PZ        -0.02130   0.04851   0.08323   0.53705  -0.03604
                          46        47        48
  46        4PX         0.45080
  47        4PY        -0.09387   0.34542
  48        4PZ         0.04735   0.08136   0.44242
    Full Mulliken population analysis:
                           1         2         3         4         5
   1 1   B  1S          2.02605
   2        2S          0.01754   0.13320
   3        2PX         0.00000   0.00000   0.22519
   4        2PY         0.00000   0.00000  -0.00000   0.22231
   5        2PZ         0.00000   0.00000  -0.00000   0.00000   0.05533
   6        3S         -0.05669   0.17496   0.00000   0.00000   0.00000
   7        3PX         0.00000   0.00000   0.05043   0.00000   0.00000
   8        3PY         0.00000   0.00000   0.00000   0.05115  -0.00000
   9        3PZ         0.00000   0.00000   0.00000  -0.00000   0.03442
  10 2   Cl 1S         -0.00000   0.00000   0.00000   0.00000   0.00000
  11        2S          0.00000  -0.00006  -0.00007  -0.00022  -0.00002
  12        2PX         0.00000  -0.00003  -0.00003  -0.00022  -0.00002
  13        2PY         0.00000  -0.00010  -0.00022  -0.00048  -0.00006
  14        2PZ         0.00000  -0.00002  -0.00003  -0.00010   0.00000
  15        3S         -0.00003   0.00083   0.00101   0.00295   0.00049
  16        3PX        -0.00008   0.00243   0.00075   0.01055   0.00095
  17        3PY        -0.00025   0.00710   0.01050   0.02056   0.00279
  18        3PZ        -0.00005   0.00180   0.00153   0.00448   0.00103
  19        4S          0.00222  -0.00829  -0.00013  -0.00024  -0.00150
  20        4PX        -0.00018   0.00346  -0.00180   0.01406   0.00084
  21        4PY        -0.00051   0.01013   0.01393   0.02226   0.00249
  22        4PZ        -0.00060   0.00496   0.00219   0.00644   0.00629
  23 3   Cl 1S         -0.00000   0.00000   0.00001   0.00000   0.00000
  24        2S          0.00000  -0.00006  -0.00032  -0.00000  -0.00002
  25        2PX         0.00000  -0.00014  -0.00098  -0.00000  -0.00009
  26        2PY         0.00000  -0.00000  -0.00000  -0.00001  -0.00000
  27        2PZ         0.00000  -0.00002  -0.00014  -0.00000   0.00000
  28        3S         -0.00003   0.00090   0.00420   0.00000   0.00052
  29        3PX        -0.00035   0.01006   0.04259   0.00000   0.00403
  30        3PY        -0.00000   0.00000   0.00000   0.00103   0.00000
  31        3PZ        -0.00005   0.00190   0.00629   0.00000   0.00108
  32        4S          0.00228  -0.00845  -0.00028  -0.00000  -0.00152
  33        4PX        -0.00069   0.01419   0.04879   0.00000   0.00361
  34        4PY        -0.00000   0.00000   0.00000  -0.00020   0.00000
  35        4PZ        -0.00062   0.00514   0.00881   0.00000   0.00649
  36 4   Cl 1S         -0.00000   0.00000   0.00000   0.00000   0.00000
  37        2S          0.00000  -0.00006  -0.00007  -0.00022  -0.00002
  38        2PX         0.00000  -0.00003  -0.00003  -0.00022  -0.00002
  39        2PY         0.00000  -0.00010  -0.00022  -0.00048  -0.00006
  40        2PZ         0.00000  -0.00002  -0.00003  -0.00010   0.00000
  41        3S         -0.00003   0.00083   0.00100   0.00296   0.00049
  42        3PX        -0.00008   0.00241   0.00071   0.01047   0.00094
  43        3PY        -0.00025   0.00713   0.01043   0.02073   0.00280
  44        3PZ        -0.00005   0.00180   0.00151   0.00450   0.00103
  45        4S          0.00222  -0.00829  -0.00013  -0.00024  -0.00150
  46        4PX        -0.00018   0.00342  -0.00183   0.01396   0.00083
  47        4PY        -0.00051   0.01017   0.01384   0.02249   0.00250
  48        4PZ        -0.00060   0.00496   0.00217   0.00646   0.00629
                           6         7         8         9        10
   6        3S          0.57702
   7        3PX         0.00000   0.07806
   8        3PY         0.00000   0.00000   0.07837
   9        3PZ         0.00000   0.00000  -0.00000   0.07366
  10 2   Cl 1S         -0.00021  -0.00009  -0.00025  -0.00004   2.14428
  11        2S          0.00515   0.00200   0.00584   0.00080  -0.14897
  12        2PX        -0.00033  -0.00007  -0.00034  -0.00007   0.00000
  13        2PY        -0.00094  -0.00034  -0.00006  -0.00020   0.00000
  14        2PZ        -0.00014  -0.00009  -0.00025  -0.00026   0.00000
  15        3S         -0.01043  -0.00412  -0.01205  -0.00020  -0.00169
  16        3PX         0.01090   0.00359   0.01151   0.00197   0.00000
  17        3PY         0.03127   0.01153   0.00280   0.00570   0.00000
  18        3PZ         0.00357   0.00285   0.00828   0.00989   0.00000
  19        4S         -0.08645  -0.01215  -0.03489  -0.00857   0.00561
  20        4PX         0.01145   0.01122   0.01334   0.00167   0.00000
  21        4PY         0.03188   0.01329   0.00045   0.00479   0.00000
  22        4PZ         0.00671   0.00404   0.01174   0.02448   0.00000
  23 3   Cl 1S         -0.00022  -0.00035  -0.00000  -0.00004   0.00000
  24        2S          0.00536   0.00805   0.00000   0.00084   0.00000
  25        2PX        -0.00125  -0.00037  -0.00000  -0.00027   0.00000
  26        2PY        -0.00000  -0.00000  -0.00043  -0.00000   0.00000
  27        2PZ        -0.00014  -0.00034  -0.00000  -0.00027   0.00000
  28        3S         -0.01083  -0.01648  -0.00000  -0.00025   0.00000
  29        3PX         0.04204   0.01327   0.00000   0.00775  -0.00000
  30        3PY         0.00000   0.00000   0.01574   0.00000  -0.00000
  31        3PZ         0.00360   0.01127   0.00000   0.01007   0.00000
  32        4S         -0.08865  -0.04751  -0.00000  -0.00885  -0.00000
  33        4PX         0.04148   0.00753   0.00000   0.00641  -0.00000
  34        4PY         0.00000   0.00000   0.03007   0.00000  -0.00000
  35        4PZ         0.00666   0.01584   0.00000   0.02478  -0.00000
  36 4   Cl 1S         -0.00021  -0.00009  -0.00025  -0.00004   0.00000
  37        2S          0.00515   0.00198   0.00586   0.00080   0.00000
  38        2PX        -0.00032  -0.00008  -0.00034  -0.00007   0.00000
  39        2PY        -0.00094  -0.00034  -0.00006  -0.00020   0.00000
  40        2PZ        -0.00014  -0.00009  -0.00025  -0.00026   0.00000
  41        3S         -0.01043  -0.00408  -0.01209  -0.00020   0.00000
  42        3PX         0.01080   0.00367   0.01144   0.00195  -0.00000
  43        3PY         0.03138   0.01145   0.00287   0.00572  -0.00000
  44        3PZ         0.00357   0.00282   0.00831   0.00989  -0.00000
  45        4S         -0.08645  -0.01202  -0.03501  -0.00857  -0.00000
  46        4PX         0.01134   0.01136   0.01325   0.00165   0.00000
  47        4PY         0.03200   0.01320   0.00049   0.00481  -0.00000
  48        4PZ         0.00671   0.00400   0.01178   0.02448   0.00000
                          11        12        13        14        15
  11        2S          2.39411
  12        2PX         0.00000   2.04780
  13        2PY         0.00000  -0.00000   2.02766
  14        2PZ         0.00000  -0.00000  -0.00000   2.03952
  15        3S         -0.12697   0.00000   0.00000   0.00000   0.76219
  16        3PX         0.00000  -0.05527   0.00000   0.00000   0.00000
  17        3PY         0.00000   0.00000  -0.04073   0.00000   0.00000
  18        3PZ         0.00000   0.00000   0.00000  -0.04896   0.00000
  19        4S         -0.17133   0.00000   0.00000   0.00000   0.52330
  20        4PX         0.00000  -0.02166   0.00000   0.00000   0.00000
  21        4PY         0.00000   0.00000  -0.01858   0.00000   0.00000
  22        4PZ         0.00000   0.00000   0.00000  -0.02103   0.00000
  23 3   Cl 1S          0.00000   0.00000   0.00000   0.00000   0.00000
  24        2S          0.00000   0.00000   0.00000   0.00000  -0.00000
  25        2PX         0.00000   0.00000   0.00000   0.00000   0.00000
  26        2PY         0.00000   0.00000   0.00000   0.00000   0.00000
  27        2PZ         0.00000   0.00000   0.00000   0.00000   0.00000
  28        3S         -0.00000   0.00000  -0.00000  -0.00000   0.00000
  29        3PX         0.00000   0.00000   0.00000  -0.00000  -0.00000
  30        3PY         0.00000   0.00000   0.00000  -0.00000  -0.00000
  31        3PZ        -0.00000   0.00000  -0.00000   0.00000  -0.00000
  32        4S          0.00000   0.00003   0.00001   0.00000  -0.00007
  33        4PX         0.00004   0.00011   0.00004   0.00000  -0.00026
  34        4PY         0.00002   0.00004   0.00001  -0.00000  -0.00014
  35        4PZ         0.00000   0.00000  -0.00000   0.00001  -0.00000
  36 4   Cl 1S          0.00000   0.00000   0.00000   0.00000   0.00000
  37        2S          0.00000   0.00000   0.00000   0.00000  -0.00000
  38        2PX         0.00000   0.00000   0.00000   0.00000   0.00000
  39        2PY         0.00000   0.00000   0.00000   0.00000   0.00000
  40        2PZ         0.00000   0.00000   0.00000   0.00000  -0.00000
  41        3S         -0.00000  -0.00000   0.00000   0.00000   0.00000
  42        3PX         0.00000   0.00000   0.00000   0.00000  -0.00000
  43        3PY         0.00000  -0.00000   0.00000   0.00000  -0.00001
  44        3PZ         0.00000   0.00000  -0.00000   0.00000   0.00000
  45        4S          0.00000  -0.00000   0.00004  -0.00000  -0.00007
  46        4PX         0.00000   0.00000  -0.00000   0.00000  -0.00000
  47        4PY         0.00007  -0.00000   0.00020   0.00000  -0.00043
  48        4PZ        -0.00000   0.00000  -0.00000   0.00001   0.00000
                          16        17        18        19        20
  16        3PX         0.72913
  17        3PY        -0.00000   0.63369
  18        3PZ        -0.00000  -0.00000   0.68135
  19        4S          0.00000   0.00000   0.00000   0.69386
  20        4PX         0.34597  -0.00000  -0.00000   0.00000   0.45024
  21        4PY        -0.00000   0.27509  -0.00000   0.00000  -0.00000
  22        4PZ        -0.00000  -0.00000   0.33451   0.00000  -0.00000
  23 3   Cl 1S         -0.00000  -0.00000  -0.00000  -0.00000  -0.00000
  24        2S          0.00000   0.00000   0.00000   0.00000   0.00006
  25        2PX         0.00000   0.00000  -0.00000   0.00002   0.00010
  26        2PY         0.00000   0.00000  -0.00000   0.00001   0.00005
  27        2PZ         0.00000  -0.00000   0.00000  -0.00000   0.00000
  28        3S         -0.00001  -0.00000   0.00000  -0.00007  -0.00035
  29        3PX        -0.00007  -0.00002   0.00000  -0.00126  -0.00442
  30        3PY        -0.00003  -0.00001   0.00000  -0.00075  -0.00206
  31        3PZ        -0.00000  -0.00000  -0.00000   0.00000  -0.00000
  32        4S         -0.00177  -0.00025  -0.00000   0.00158  -0.00857
  33        4PX        -0.00506  -0.00154  -0.00000  -0.00464  -0.02273
  34        4PY        -0.00181  -0.00029   0.00000  -0.00408  -0.01000
  35        4PZ        -0.00000   0.00000  -0.00038   0.00000  -0.00000
  36 4   Cl 1S          0.00000  -0.00000   0.00000  -0.00000  -0.00000
  37        2S         -0.00000   0.00000  -0.00000   0.00000  -0.00000
  38        2PX         0.00000   0.00000   0.00000   0.00000   0.00000
  39        2PY        -0.00000   0.00000   0.00000   0.00004   0.00000
  40        2PZ         0.00000  -0.00000   0.00000   0.00000   0.00000
  41        3S          0.00000  -0.00001  -0.00000  -0.00007   0.00000
  42        3PX        -0.00000  -0.00000  -0.00000  -0.00000   0.00002
  43        3PY         0.00000  -0.00014  -0.00000  -0.00203  -0.00000
  44        3PZ        -0.00000   0.00000  -0.00000  -0.00000  -0.00000
  45        4S          0.00000  -0.00203   0.00000   0.00158   0.00001
  46        4PX         0.00002   0.00000  -0.00000  -0.00001   0.00061
  47        4PY         0.00000  -0.00881   0.00000  -0.00888   0.00000
  48        4PZ        -0.00000   0.00000  -0.00039  -0.00000  -0.00000
                          21        22        23        24        25
  21        4PY         0.34598
  22        4PZ        -0.00000   0.44242
  23 3   Cl 1S         -0.00000   0.00000   2.14428
  24        2S          0.00001  -0.00000  -0.14897   2.39404
  25        2PX         0.00004   0.00000   0.00000   0.00000   2.01732
  26        2PY         0.00001  -0.00000   0.00000   0.00000   0.00000
  27        2PZ        -0.00000   0.00001   0.00000   0.00000   0.00000
  28        3S         -0.00006   0.00000  -0.00170  -0.12684   0.00000
  29        3PX        -0.00179  -0.00000   0.00000   0.00000  -0.03331
  30        3PY        -0.00042   0.00000   0.00000   0.00000  -0.00000
  31        3PZ         0.00000  -0.00038   0.00000   0.00000  -0.00000
  32        4S         -0.00026  -0.00000   0.00564  -0.17185   0.00000
  33        4PX        -0.00779  -0.00000   0.00000   0.00000  -0.01691
  34        4PY        -0.00118   0.00000   0.00000   0.00000  -0.00000
  35        4PZ         0.00000  -0.00288   0.00000   0.00000  -0.00000
  36 4   Cl 1S         -0.00000  -0.00000   0.00000   0.00000   0.00000
  37        2S          0.00007   0.00000   0.00000   0.00000   0.00000
  38        2PX         0.00000   0.00000   0.00000   0.00000   0.00000
  39        2PY         0.00020   0.00000   0.00000   0.00000   0.00000
  40        2PZ        -0.00000   0.00001   0.00000   0.00000   0.00000
  41        3S         -0.00043  -0.00000   0.00000  -0.00000   0.00000
  42        3PX        -0.00000  -0.00000  -0.00000   0.00000   0.00000
  43        3PY        -0.00881  -0.00000  -0.00000   0.00000   0.00000
  44        3PZ        -0.00000  -0.00039  -0.00000   0.00000  -0.00000
  45        4S         -0.00889   0.00000  -0.00000   0.00000   0.00002
  46        4PX        -0.00000  -0.00000  -0.00000   0.00006   0.00010
  47        4PY        -0.04269  -0.00000  -0.00000   0.00001   0.00004
  48        4PZ         0.00000  -0.00292   0.00000  -0.00000   0.00000
                          26        27        28        29        30
  26        2PY         2.05855
  27        2PZ        -0.00000   2.03943
  28        3S          0.00000   0.00000   0.76261
  29        3PX        -0.00000  -0.00000   0.00000   0.58522
  30        3PY        -0.06305   0.00000   0.00000   0.00000   0.78058
  31        3PZ         0.00000  -0.04892   0.00000   0.00000  -0.00000
  32        4S          0.00000   0.00000   0.52360   0.00000   0.00000
  33        4PX        -0.00000  -0.00000   0.00000   0.23685   0.00000
  34        4PY        -0.02327   0.00000   0.00000   0.00000   0.38307
  35        4PZ         0.00000  -0.02098   0.00000   0.00000  -0.00000
  36 4   Cl 1S          0.00000   0.00000   0.00000  -0.00000  -0.00000
  37        2S          0.00000   0.00000  -0.00000   0.00000   0.00000
  38        2PX         0.00000   0.00000   0.00000   0.00000   0.00000
  39        2PY         0.00000   0.00000  -0.00000   0.00000   0.00000
  40        2PZ         0.00000   0.00000  -0.00000  -0.00000  -0.00000
  41        3S          0.00000   0.00000   0.00000  -0.00000  -0.00000
  42        3PX         0.00000   0.00000  -0.00001  -0.00007  -0.00003
  43        3PY         0.00000  -0.00000  -0.00000  -0.00002  -0.00001
  44        3PZ        -0.00000   0.00000   0.00000   0.00000   0.00000
  45        4S          0.00001  -0.00000  -0.00007  -0.00125  -0.00075
  46        4PX         0.00005   0.00000  -0.00035  -0.00439  -0.00207
  47        4PY         0.00001  -0.00000  -0.00006  -0.00180  -0.00043
  48        4PZ        -0.00000   0.00001   0.00000  -0.00000   0.00000
                          31        32        33        34        35
  31        3PZ         0.68136
  32        4S          0.00000   0.69691
  33        4PX         0.00000   0.00000   0.28836
  34        4PY        -0.00000   0.00000   0.00000   0.50418
  35        4PZ         0.33344   0.00000   0.00000  -0.00000   0.43977
  36 4   Cl 1S          0.00000  -0.00000  -0.00000  -0.00000  -0.00000
  37        2S         -0.00000   0.00000   0.00004   0.00002   0.00000
  38        2PX         0.00000   0.00003   0.00011   0.00004   0.00000
  39        2PY        -0.00000   0.00001   0.00004   0.00001  -0.00000
  40        2PZ         0.00000   0.00000   0.00000  -0.00000   0.00001
  41        3S         -0.00000  -0.00007  -0.00026  -0.00014  -0.00000
  42        3PX        -0.00000  -0.00177  -0.00503  -0.00182  -0.00000
  43        3PY        -0.00000  -0.00025  -0.00156  -0.00030   0.00000
  44        3PZ        -0.00000  -0.00000  -0.00000   0.00000  -0.00038
  45        4S          0.00000   0.00158  -0.00461  -0.00411   0.00000
  46        4PX        -0.00000  -0.00856  -0.02256  -0.01006  -0.00000
  47        4PY         0.00000  -0.00028  -0.00785  -0.00123   0.00000
  48        4PZ        -0.00038  -0.00000  -0.00000   0.00000  -0.00288
                          36        37        38        39        40
  36 4   Cl 1S          2.14428
  37        2S         -0.14897   2.39411
  38        2PX         0.00000   0.00000   2.04791
  39        2PY         0.00000   0.00000   0.00000   2.02755
  40        2PZ         0.00000   0.00000  -0.00000   0.00000   2.03952
  41        3S         -0.00169  -0.12697   0.00000   0.00000   0.00000
  42        3PX         0.00000   0.00000  -0.05535  -0.00000   0.00000
  43        3PY         0.00000   0.00000  -0.00000  -0.04066  -0.00000
  44        3PZ         0.00000   0.00000   0.00000  -0.00000  -0.04896
  45        4S          0.00561  -0.17133   0.00000   0.00000   0.00000
  46        4PX         0.00000   0.00000  -0.02167  -0.00000   0.00000
  47        4PY         0.00000   0.00000  -0.00000  -0.01856  -0.00000
  48        4PZ         0.00000   0.00000   0.00000  -0.00000  -0.02103
                          41        42        43        44        45
  41        3S          0.76219
  42        3PX         0.00000   0.72964
  43        3PY         0.00000   0.00000   0.63318
  44        3PZ         0.00000  -0.00000   0.00000   0.68135
  45        4S          0.52330   0.00000   0.00000   0.00000   0.69385
  46        4PX         0.00000   0.34635   0.00000  -0.00000   0.00000
  47        4PY         0.00000   0.00000   0.27471   0.00000   0.00000
  48        4PZ         0.00000  -0.00000   0.00000   0.33451   0.00000
                          46        47        48
  46        4PX         0.45080
  47        4PY         0.00000   0.34542
  48        4PZ        -0.00000   0.00000   0.44242
     Gross orbital populations:
                           1
   1 1   B  1S          1.98850
   2        2S          0.39364
   3        2PX         0.43956
   4        2PY         0.43465
   5        2PZ         0.13042
   6        3S          0.69824
   7        3PX         0.18288
   8        3PY         0.18703
   9        3PZ         0.22814
  10 2   Cl 1S          1.99865
  11        2S          1.96040
  12        2PX         1.96995
  13        2PY         1.96623
  14        2PZ         1.96865
  15        3S          1.13429
  16        3PX         1.05366
  17        3PY         0.94696
  18        3PZ         0.99951
  19        4S          0.88291
  20        4PX         0.78133
  21        4PY         0.62923
  22        4PZ         0.81559
  23 3   Cl 1S          1.99865
  24        2S          1.96037
  25        2PX         1.96432
  26        2PY         1.97192
  27        2PZ         1.96863
  28        3S          1.13472
  29        3PX         0.89303
  30        3PY         1.11079
  31        3PZ         0.99928
  32        4S          0.88271
  33        4PX         0.54612
  34        4PY         0.85883
  35        4PZ         0.81280
  36 4   Cl 1S          1.99865
  37        2S          1.96040
  38        2PX         1.96997
  39        2PY         1.96621
  40        2PZ         1.96865
  41        3S          1.13429
  42        3PX         1.05423
  43        3PY         0.94639
  44        3PZ         0.99951
  45        4S          0.88291
  46        4PX         0.78214
  47        4PY         0.62843
  48        4PZ         0.81559
          Condensed to atoms (all electrons):
               1          2          3          4
     1  B    4.012831   0.223898   0.222434   0.223899
     2  Cl   0.223898  17.050813  -0.083217  -0.084121
     3  Cl   0.222434  -0.083217  17.046188  -0.083220
     4  Cl   0.223899  -0.084121  -0.083220  17.050820
 Mulliken charges:
               1
     1  B    0.316937
     2  Cl  -0.107373
     3  Cl  -0.102185
     4  Cl  -0.107378
 Sum of Mulliken charges =  -0.00000
 Mulliken charges with hydrogens summed into heavy atoms:
               1
     1  B    0.316937
     2  Cl  -0.107373
     3  Cl  -0.102185
     4  Cl  -0.107378
 Electronic spatial extent (au):  <R**2>=            700.2575
 Charge=             -0.0000 electrons
 Dipole moment (field-independent basis, Debye):
    X=             -0.0718    Y=             -0.0002    Z=              1.8418  Tot=              1.8432
 Quadrupole moment (field-independent basis, Debye-Ang):
   XX=            -48.9635   YY=            -49.0484   ZZ=            -42.3770
   XY=              0.0001   XZ=             -0.0286   YZ=             -0.0001
 Traceless Quadrupole moment (field-independent basis, Debye-Ang):
   XX=             -2.1672   YY=             -2.2521   ZZ=              4.4193
   XY=              0.0001   XZ=             -0.0286   YZ=             -0.0001
 Octapole moment (field-independent basis, Debye-Ang**2):
  XXX=              1.3821  YYY=             -0.0070  ZZZ=             -0.5918  XYY=             -1.5516
  XXY=              0.0066  XXZ=             -3.0529  XZZ=             -0.0568  YZZ=             -0.0001
  YYZ=             -3.0381  XYZ=             -0.0000
 Hexadecapole moment (field-independent basis, Debye-Ang**3):
 XXXX=           -429.5411 YYYY=           -429.2320 ZZZZ=            -56.1227 XXXY=              0.0000
 XXXZ=              3.2352 YYYX=              0.0007 YYYZ=             -0.0145 ZZZX=             -0.0158
 ZZZY=             -0.0000 XXYY=           -143.0680 XXZZ=            -80.8216 YYZZ=            -80.7273
 XXYZ=              0.0144 YYXZ=             -3.2602 ZZXY=              0.0001
 N-N= 2.184641970693D+02 E-N=-3.760575215016D+03  KE= 1.395137128073D+03
 Orbital energies and kinetic energies (alpha):
                                 1                 2
   1         O              -104.149840        136.080286
   2         O              -104.148123        136.078487
   3         O              -104.147918        136.083787
   4         O               -10.543614         22.348872
   5         O               -10.541849         22.345217
   6         O               -10.541149         22.364286
   7         O                -8.006536         20.334057
   8         O                -8.004607         20.331020
   9         O                -8.004468         20.338659
  10         O                -8.002932         20.366732
  11         O                -8.002584         20.368751
  12         O                -8.000998         20.365042
  13         O                -8.000925         20.368457
  14         O                -8.000678         20.367361
  15         O                -8.000523         20.374158
  16         O                -7.820263         10.822888
  17         O                -1.178569          2.587423
  18         O                -1.123077          2.963951
  19         O                -1.120836          2.966045
  20         O                -0.706439          2.120949
  21         O                -0.593429          1.980369
  22         O                -0.592586          1.972977
  23         O                -0.552978          1.867152
  24         O                -0.501358          2.239011
  25         O                -0.500334          2.242276
  26         O                -0.482725          2.402416
  27         O                -0.481670          2.404006
  28         O                -0.473528          2.483930
  29         V                -0.039819          1.432488
  30         V                 0.166324          2.216261
  31         V                 0.176991          1.640187
  32         V                 0.180128          1.641407
  33         V                 0.563008          1.886093
  34         V                 0.563851          1.887144
  35         V                 0.570873          1.765931
  36         V                 0.641345          2.804632
  37         V                 0.730959          3.120923
  38         V                 0.731672          3.115751
  39         V                 0.748829          3.497359
  40         V                 0.748845          3.494287
  41         V                 0.755244          3.500221
  42         V                 0.810521          3.398800
  43         V                 0.843386          3.407539
  44         V                 0.844030          3.410346
  45         V                 0.889133          3.510206
  46         V                 1.018710          3.696903
  47         V                 1.020831          3.699163
  48         V                 1.170863          2.036248
 Total kinetic energy from orbitals= 1.395137128073D+03
 1\1\GINC-IISERK51\SP\RHF\3-21G\B1Cl3\GAUSSIAN\16-Jun-2025\0\\# hf/3-21
 g pop=full geom=connectivity\\Title Card Required\\0,1\B,0,-1.470357,0
 .030388,-0.000002\Cl,0,-1.987795,-0.915042,1.5584\Cl,0,-2.166243,1.781
 479,-0.000453\Cl,0,-1.987916,-0.91586,-1.55788\\Version=EM64L-G16RevB.
 01\State=1-A\HF=-1396.4793806\RMSD=7.846e-09\Dipole=0.7212059,0.075824
 3,-0.000018\Quadrupole=3.2616916,-1.5873241,-1.6743675,0.3422094,-0.00
 0256,-0.0000643\PG=C01 [X(B1Cl3)]\\@


 IF AT FIRST YOU DON'T SUCCEED, TRY LOOKING IN 
 THE WASTEBASKET FOR THE DIRECTIONS.
 Job cpu time:       0 days  0 hours  0 minutes  0.4 seconds.
 Elapsed time:       0 days  0 hours  0 minutes  0.4 seconds.
 File lengths (MBytes):  RWF=      6 Int=      0 D2E=      0 Chk=      1 Scr=      1
 Normal termination of Gaussian 16 at Mon Jun 16 23:33:47 2025.
