 Entering Gaussian System, Link 0=g16
 Input=/home/gaussian/Documents/jeeva/Aromaticity/cycloheptatrienyl_cation/cation_isomer.com
 Output=/home/gaussian/Documents/jeeva/Aromaticity/cycloheptatrienyl_cation/cation_isomer.log
 Initial command:
 /usr/local/g16/l1.exe "/home/gaussian/tmp/Gau-97166.inp" -scrdir="/home/gaussian/tmp/"
 Entering Link 1 = /usr/local/g16/l1.exe PID=     97169.
  
 Copyright (c) 1988-2017, Gaussian, Inc.  All Rights Reserved.
  
 This is part of the Gaussian(R) 16 program.  It is based on
 the Gaussian(R) 09 system (copyright 2009, Gaussian, Inc.),
 the Gaussian(R) 03 system (copyright 2003, Gaussian, Inc.),
 the Gaussian(R) 98 system (copyright 1998, Gaussian, Inc.),
 the Gaussian(R) 94 system (copyright 1995, Gaussian, Inc.),
 the Gaussian 92(TM) system (copyright 1992, Gaussian, Inc.),
 the Gaussian 90(TM) system (copyright 1990, Gaussian, Inc.),
 the Gaussian 88(TM) system (copyright 1988, Gaussian, Inc.),
 the Gaussian 86(TM) system (copyright 1986, Carnegie Mellon
 University), and the Gaussian 82(TM) system (copyright 1983,
 Carnegie Mellon University). Gaussian is a federally registered
 trademark of Gaussian, Inc.
  
 This software contains proprietary and confidential information,
 including trade secrets, belonging to Gaussian, Inc.
  
 This software is provided under written license and may be
 used, copied, transmitted, or stored only in accord with that
 written license.
  
 The following legend is applicable only to US Government
 contracts under FAR:
  
                    RESTRICTED RIGHTS LEGEND
  
 Use, reproduction and disclosure by the US Government is
 subject to restrictions as set forth in subparagraphs (a)
 and (c) of the Commercial Computer Software - Restricted
 Rights clause in FAR 52.227-19.
  
 Gaussian, Inc.
 340 Quinnipiac St., Bldg. 40, Wallingford CT 06492
  
  
 ---------------------------------------------------------------
 Warning -- This program may not be used in any manner that
 competes with the business of Gaussian, Inc. or will provide
 assistance to any competitor of Gaussian, Inc.  The licensee
 of this program is prohibited from giving any competitor of
 Gaussian, Inc. access to this program.  By using this program,
 the user acknowledges that Gaussian, Inc. is engaged in the
 business of creating and licensing software in the field of
 computational chemistry and represents and warrants to the
 licensee that it is not a competitor of Gaussian, Inc. and that
 it will not use this program in any manner prohibited above.
 ---------------------------------------------------------------
  

 Cite this work as:
 Gaussian 16, Revision B.01,
 M. J. Frisch, G. W. Trucks, H. B. Schlegel, G. E. Scuseria, 
 M. A. Robb, J. R. Cheeseman, G. Scalmani, V. Barone, 
 G. A. Petersson, H. Nakatsuji, X. Li, M. Caricato, A. V. Marenich, 
 J. Bloino, B. G. Janesko, R. Gomperts, B. Mennucci, H. P. Hratchian, 
 J. V. Ortiz, A. F. Izmaylov, J. L. Sonnenberg, D. Williams-Young, 
 F. Ding, F. Lipparini, F. Egidi, J. Goings, B. Peng, A. Petrone, 
 T. Henderson, D. Ranasinghe, V. G. Zakrzewski, J. Gao, N. Rega, 
 G. Zheng, W. Liang, M. Hada, M. Ehara, K. Toyota, R. Fukuda, 
 J. Hasegawa, M. Ishida, T. Nakajima, Y. Honda, O. Kitao, H. Nakai, 
 T. Vreven, K. Throssell, J. A. Montgomery, Jr., J. E. Peralta, 
 F. Ogliaro, M. J. Bearpark, J. J. Heyd, E. N. Brothers, K. N. Kudin, 
 V. N. Staroverov, T. A. Keith, R. Kobayashi, J. Normand, 
 K. Raghavachari, A. P. Rendell, J. C. Burant, S. S. Iyengar, 
 J. Tomasi, M. Cossi, J. M. Millam, M. Klene, C. Adamo, R. Cammi, 
 J. W. Ochterski, R. L. Martin, K. Morokuma, O. Farkas, 
 J. B. Foresman, and D. J. Fox, Gaussian, Inc., Wallingford CT, 2016.
 
 ******************************************
 Gaussian 16:  EM64L-G16RevB.01 20-Dec-2017
                 9-Jun-2025 
 ******************************************
 %chk=cation_isomer.chk
 -------------------------------------
 # opt freq hf/3-21g geom=connectivity
 -------------------------------------
 1/18=20,19=15,38=1,57=2/1,3;
 2/9=110,12=2,17=6,18=5,40=1/2;
 3/5=5,11=9,25=1,30=1,71=1/1,2,3;
 4//1;
 5/5=2,38=5/2;
 6/7=2,8=2,9=2,10=2,28=1/1;
 7//1,2,3,16;
 1/18=20,19=15/3(2);
 2/9=110/2;
 99//99;
 2/9=110/2;
 3/5=5,11=9,25=1,30=1,71=1/1,2,3;
 4/5=5,16=3,69=1/1;
 5/5=2,38=5/2;
 7//1,2,3,16;
 1/18=20,19=15/3(-5);
 2/9=110/2;
 6/7=2,8=2,9=2,10=2,19=2,28=1/1;
 99/9=1/99;
 ------------
 Optimisation
 ------------
 Symbolic Z-matrix:
 Charge =  1 Multiplicity = 1
 C                    -0.98947   1.15871  -0.41618 
 C                     0.41023   1.15536  -0.28644 
 C                     1.30428   2.18987   0.14495 
 C                    -1.93501   2.22062  -0.22405 
 C                     0.92095   3.32034   0.76313 
 C                    -1.57339   3.59969   0.32192 
 C                    -0.47357   3.37754   1.30893 
 H                    -1.41576   0.22562  -0.72034 
 H                     0.88532   0.23884  -0.56782 
 H                     2.34938   2.05321  -0.03937 
 H                     1.58934   4.14972   0.86456 
 H                    -0.67463   3.2383    2.3506 
 C                    -3.22992   1.98447  -0.54655 
 H                    -3.5197    1.02917  -0.9317 
 H                    -3.96255   2.75331  -0.41603 
 H                    -1.24736   4.2361   -0.47405 
 H                    -2.41516   4.04996   0.80522 
 

 GradGradGradGradGradGradGradGradGradGradGradGradGradGradGradGradGradGrad
 Berny optimization.
 Initialization pass.
                           ----------------------------
                           !    Initial Parameters    !
                           ! (Angstroms and Degrees)  !
 --------------------------                            --------------------------
 ! Name  Definition              Value          Derivative Info.                !
 --------------------------------------------------------------------------------
 ! R1    R(1,2)                  1.4057         estimate D2E/DX2                !
 ! R2    R(1,4)                  1.4348         estimate D2E/DX2                !
 ! R3    R(1,8)                  1.07           estimate D2E/DX2                !
 ! R4    R(2,3)                  1.4337         estimate D2E/DX2                !
 ! R5    R(2,9)                  1.07           estimate D2E/DX2                !
 ! R6    R(3,5)                  1.3443         estimate D2E/DX2                !
 ! R7    R(3,10)                 1.07           estimate D2E/DX2                !
 ! R8    R(4,6)                  1.5267         estimate D2E/DX2                !
 ! R9    R(4,13)                 1.3552         estimate D2E/DX2                !
 ! R10   R(5,7)                  1.4986         estimate D2E/DX2                !
 ! R11   R(5,11)                 1.07           estimate D2E/DX2                !
 ! R12   R(6,7)                  1.4944         estimate D2E/DX2                !
 ! R13   R(6,16)                 1.07           estimate D2E/DX2                !
 ! R14   R(6,17)                 1.07           estimate D2E/DX2                !
 ! R15   R(7,12)                 1.07           estimate D2E/DX2                !
 ! R16   R(13,14)                1.07           estimate D2E/DX2                !
 ! R17   R(13,15)                1.07           estimate D2E/DX2                !
 ! A1    A(2,1,4)              130.2108         estimate D2E/DX2                !
 ! A2    A(2,1,8)              114.8893         estimate D2E/DX2                !
 ! A3    A(4,1,8)              114.8929         estimate D2E/DX2                !
 ! A4    A(1,2,3)              130.3129         estimate D2E/DX2                !
 ! A5    A(1,2,9)              114.8269         estimate D2E/DX2                !
 ! A6    A(3,2,9)              114.8537         estimate D2E/DX2                !
 ! A7    A(2,3,5)              124.5647         estimate D2E/DX2                !
 ! A8    A(2,3,10)             117.7152         estimate D2E/DX2                !
 ! A9    A(5,3,10)             117.7201         estimate D2E/DX2                !
 ! A10   A(1,4,6)              124.08           estimate D2E/DX2                !
 ! A11   A(1,4,13)             117.9605         estimate D2E/DX2                !
 ! A12   A(6,4,13)             117.9596         estimate D2E/DX2                !
 ! A13   A(3,5,7)              117.7058         estimate D2E/DX2                !
 ! A14   A(3,5,11)             121.1518         estimate D2E/DX2                !
 ! A15   A(7,5,11)             121.1421         estimate D2E/DX2                !
 ! A16   A(4,6,7)              106.037          estimate D2E/DX2                !
 ! A17   A(4,6,16)             110.0851         estimate D2E/DX2                !
 ! A18   A(4,6,17)             110.8128         estimate D2E/DX2                !
 ! A19   A(7,6,16)             110.8245         estimate D2E/DX2                !
 ! A20   A(7,6,17)             110.0734         estimate D2E/DX2                !
 ! A21   A(16,6,17)            108.9908         estimate D2E/DX2                !
 ! A22   A(5,7,6)              116.7421         estimate D2E/DX2                !
 ! A23   A(5,7,12)             121.6311         estimate D2E/DX2                !
 ! A24   A(6,7,12)             121.6045         estimate D2E/DX2                !
 ! A25   A(4,13,14)            120.0            estimate D2E/DX2                !
 ! A26   A(4,13,15)            120.0            estimate D2E/DX2                !
 ! A27   A(14,13,15)           120.0            estimate D2E/DX2                !
 ! D1    D(4,1,2,3)              3.7792         estimate D2E/DX2                !
 ! D2    D(4,1,2,9)           -175.2367         estimate D2E/DX2                !
 ! D3    D(8,1,2,3)           -177.2457         estimate D2E/DX2                !
 ! D4    D(8,1,2,9)              3.7384         estimate D2E/DX2                !
 ! D5    D(2,1,4,6)             -6.4773         estimate D2E/DX2                !
 ! D6    D(2,1,4,13)           173.5654         estimate D2E/DX2                !
 ! D7    D(8,1,4,6)            174.5476         estimate D2E/DX2                !
 ! D8    D(8,1,4,13)            -5.4097         estimate D2E/DX2                !
 ! D9    D(1,2,3,5)             13.5125         estimate D2E/DX2                !
 ! D10   D(1,2,3,10)          -166.3893         estimate D2E/DX2                !
 ! D11   D(9,2,3,5)           -167.4719         estimate D2E/DX2                !
 ! D12   D(9,2,3,10)            12.6263         estimate D2E/DX2                !
 ! D13   D(2,3,5,7)             14.1633         estimate D2E/DX2                !
 ! D14   D(2,3,5,11)          -166.0117         estimate D2E/DX2                !
 ! D15   D(10,3,5,7)          -165.9348         estimate D2E/DX2                !
 ! D16   D(10,3,5,11)           13.8901         estimate D2E/DX2                !
 ! D17   D(1,4,6,7)            -33.8111         estimate D2E/DX2                !
 ! D18   D(1,4,6,16)            86.12           estimate D2E/DX2                !
 ! D19   D(1,4,6,17)          -153.2382         estimate D2E/DX2                !
 ! D20   D(13,4,6,7)           146.1462         estimate D2E/DX2                !
 ! D21   D(13,4,6,16)          -93.9226         estimate D2E/DX2                !
 ! D22   D(13,4,6,17)           26.7191         estimate D2E/DX2                !
 ! D23   D(1,4,13,14)           -0.02           estimate D2E/DX2                !
 ! D24   D(1,4,13,15)          179.98           estimate D2E/DX2                !
 ! D25   D(6,4,13,14)         -179.98           estimate D2E/DX2                !
 ! D26   D(6,4,13,15)            0.02           estimate D2E/DX2                !
 ! D27   D(3,5,7,6)            -76.9849         estimate D2E/DX2                !
 ! D28   D(3,5,7,12)           101.3228         estimate D2E/DX2                !
 ! D29   D(11,5,7,6)           103.1901         estimate D2E/DX2                !
 ! D30   D(11,5,7,12)          -78.5022         estimate D2E/DX2                !
 ! D31   D(4,6,7,5)             85.4146         estimate D2E/DX2                !
 ! D32   D(4,6,7,12)           -92.8936         estimate D2E/DX2                !
 ! D33   D(16,6,7,5)           -34.0328         estimate D2E/DX2                !
 ! D34   D(16,6,7,12)          147.6589         estimate D2E/DX2                !
 ! D35   D(17,6,7,5)          -154.6745         estimate D2E/DX2                !
 ! D36   D(17,6,7,12)           27.0173         estimate D2E/DX2                !
 --------------------------------------------------------------------------------
 Trust Radius=3.00D-01 FncErr=1.00D-07 GrdErr=1.00D-07 EigMax=2.50D+02 EigMin=1.00D-04
 Number of steps in this run=     90 maximum allowed number of steps=    102.
 GradGradGradGradGradGradGradGradGradGradGradGradGradGradGradGradGradGrad

                          Input orientation:                          
 ---------------------------------------------------------------------
 Center     Atomic      Atomic             Coordinates (Angstroms)
 Number     Number       Type             X           Y           Z
 ---------------------------------------------------------------------
      1          6           0       -0.989468    1.158707   -0.416176
      2          6           0        0.410229    1.155360   -0.286439
      3          6           0        1.304278    2.189874    0.144952
      4          6           0       -1.935011    2.220615   -0.224052
      5          6           0        0.920949    3.320344    0.763131
      6          6           0       -1.573386    3.599686    0.321923
      7          6           0       -0.473574    3.377542    1.308930
      8          1           0       -1.415765    0.225617   -0.720338
      9          1           0        0.885317    0.238837   -0.567825
     10          1           0        2.349384    2.053211   -0.039373
     11          1           0        1.589337    4.149722    0.864560
     12          1           0       -0.674634    3.238298    2.350604
     13          6           0       -3.229923    1.984465   -0.546550
     14          1           0       -3.519695    1.029168   -0.931699
     15          1           0       -3.962550    2.753310   -0.416029
     16          1           0       -1.247360    4.236103   -0.474055
     17          1           0       -2.415159    4.049960    0.805216
 ---------------------------------------------------------------------
                    Distance matrix (angstroms):
                    1          2          3          4          5
     1  C    0.000000
     2  C    1.405701   0.000000
     3  C    2.576711   1.433750   0.000000
     4  C    1.434787   2.576590   3.260384   0.000000
     5  C    3.116590   2.459590   1.344265   3.215656   0.000000
     6  C    2.616129   3.206176   3.209336   1.526663   2.548412
     7  C    2.857511   2.874788   2.434370   2.413362   1.498620
     8  H    1.070000   2.094503   3.464919   2.120362   4.151896
     9  H    2.093794   1.070000   2.118991   3.464083   3.356843
    10  H    3.477075   2.151162   1.070000   4.291640   2.071247
    11  H    4.151710   3.417792   2.107155   4.162639   1.070000
    12  H    3.475470   3.531226   3.143276   3.041889   2.252263
    13  C    2.391341   3.742430   4.591224   1.355200   4.552974
    14  H    2.585458   3.984544   5.077118   2.105120   5.276481
    15  H    3.373718   4.657406   5.326503   2.105120   5.055740
    16  H    3.088725   3.503395   3.328825   2.144191   2.659098
    17  H    3.447280   4.189658   4.210710   2.153239   3.415220
                    6          7          8          9         10
     6  C    0.000000
     7  C    1.494362   0.000000
     8  H    3.534897   3.865267   0.000000
     9  H    4.258189   3.901315   2.306168   0.000000
    10  H    4.232050   3.397185   4.240302   2.390546   0.000000
    11  H    3.255735   2.247071   5.190486   4.224026   2.406268
    12  H    2.248089   1.070000   4.365342   4.466256   4.032507
    13  C    2.471294   3.602906   2.532769   4.470220   5.602733
    14  H    3.459371   4.451307   2.262055   4.490118   6.024201
    15  H    2.639892   3.941840   3.601104   5.463280   6.361801
    16  H    1.070000   2.124831   4.021568   4.531582   4.229719
    17  H    1.070000   2.115568   4.236945   5.225231   5.234616
                   11         12         13         14         15
    11  H    0.000000
    12  H    2.857374   0.000000
    13  C    5.468531   4.061416   0.000000
    14  H    6.250329   4.873206   1.070000   0.000000
    15  H    5.866287   4.324334   1.070000   1.853294   0.000000
    16  H    3.137865   3.049972   3.000947   3.956940   3.094237
    17  H    4.006178   2.465046   2.599496   3.655414   2.359482
                   16         17
    16  H    0.000000
    17  H    1.742107   0.000000
 Stoichiometry    C8H9(1+)
 Framework group  C1[X(C8H9)]
 Deg. of freedom    45
 Full point group                 C1      NOp   1
 Largest Abelian subgroup         C1      NOp   1
 Largest concise Abelian subgroup C1      NOp   1
                         Standard orientation:                         
 ---------------------------------------------------------------------
 Center     Atomic      Atomic             Coordinates (Angstroms)
 Number     Number       Type             X           Y           Z
 ---------------------------------------------------------------------
      1          6           0        0.494547    1.267465    0.129615
      2          6           0       -0.892390    1.481732    0.049056
      3          6           0       -1.962478    0.555008   -0.178394
      4          6           0        1.259386    0.068874   -0.062776
      5          6           0       -1.841330   -0.781958   -0.108442
      6          6           0        0.645602   -1.312702   -0.275416
      7          6           0       -0.608152   -1.336984    0.537374
      8          1           0        1.072471    2.139059    0.355950
      9          1           0       -1.196763    2.501328    0.161664
     10          1           0       -2.924245    0.955527   -0.422299
     11          1           0       -2.600491   -1.427664   -0.497851
     12          1           0       -0.618487   -1.706945    1.541327
     13          6           0        2.610834    0.169293   -0.054391
     14          1           0        3.075631    1.121837    0.092319
     15          1           0        3.213075   -0.703966   -0.194480
     16          1           0        0.429566   -1.463145   -1.312525
     17          1           0        1.313138   -2.080407    0.056133
 ---------------------------------------------------------------------
 Rotational constants (GHZ):           3.7640850           1.9445688           1.3504645
 Standard basis: 3-21G (6D, 7F)
 There are    90 symmetry adapted cartesian basis functions of A   symmetry.
 There are    90 symmetry adapted basis functions of A   symmetry.
    90 basis functions,   147 primitive gaussians,    90 cartesian basis functions
    28 alpha electrons       28 beta electrons
       nuclear repulsion energy       333.4005338872 Hartrees.
 NAtoms=   17 NActive=   17 NUniq=   17 SFac= 1.00D+00 NAtFMM=   60 NAOKFM=F Big=F
 Integral buffers will be    131072 words long.
 Raffenetti 1 integral format.
 Two-electron integral symmetry is turned on.
 One-electron integrals computed using PRISM.
 NBasis=    90 RedAO= T EigKep=  4.00D-03  NBF=    90
 NBsUse=    90 1.00D-06 EigRej= -1.00D+00 NBFU=    90
 ExpMin= 1.83D-01 ExpMax= 1.72D+02 ExpMxC= 1.72D+02 IAcc=3 IRadAn=         5 AccDes= 0.00D+00
 Harris functional with IExCor=  205 and IRadAn=       5 diagonalized for initial guess.
 HarFok:  IExCor=  205 AccDes= 0.00D+00 IRadAn=         5 IDoV= 1 UseB2=F ITyADJ=14
 ICtDFT=  3500011 ScaDFX=  1.000000  1.000000  1.000000  1.000000
 FoFCou: FMM=F IPFlag=           0 FMFlag=      100000 FMFlg1=           0
         NFxFlg=           0 DoJE=T BraDBF=F KetDBF=T FulRan=T
         wScrn=  0.000000 ICntrl=       500 IOpCl=  0 I1Cent=   200000004 NGrid=           0
         NMat0=    1 NMatS0=      1 NMatT0=    0 NMatD0=    1 NMtDS0=    0 NMtDT0=    0
 Petite list used in FoFCou.
 Keep R1 ints in memory in canonical form, NReq=9231694.
 Requested convergence on RMS density matrix=1.00D-08 within 128 cycles.
 Requested convergence on MAX density matrix=1.00D-06.
 Requested convergence on             energy=1.00D-06.
 No special actions if energy rises.
 SCF Done:  E(RHF) =  -306.087384946     A.U. after   17 cycles
            NFock= 17  Conv=0.29D-08     -V/T= 2.0025

 **********************************************************************

            Population analysis using the SCF Density.

 **********************************************************************

 Orbital symmetries:
       Occupied  (A) (A) (A) (A) (A) (A) (A) (A) (A) (A) (A) (A)
                 (A) (A) (A) (A) (A) (A) (A) (A) (A) (A) (A) (A)
                 (A) (A) (A) (A)
       Virtual   (A) (A) (A) (A) (A) (A) (A) (A) (A) (A) (A) (A)
                 (A) (A) (A) (A) (A) (A) (A) (A) (A) (A) (A) (A)
                 (A) (A) (A) (A) (A) (A) (A) (A) (A) (A) (A) (A)
                 (A) (A) (A) (A) (A) (A) (A) (A) (A) (A) (A) (A)
                 (A) (A) (A) (A) (A) (A) (A) (A) (A) (A) (A) (A)
                 (A) (A)
 The electronic state is 1-A.
 Alpha  occ. eigenvalues --  -11.53676 -11.39134 -11.38425 -11.38420 -11.37975
 Alpha  occ. eigenvalues --  -11.36956 -11.35964 -11.34777  -1.35554  -1.27135
 Alpha  occ. eigenvalues --   -1.24305  -1.14681  -1.09146  -1.02463  -0.94928
 Alpha  occ. eigenvalues --   -0.90643  -0.87674  -0.84817  -0.81342  -0.79159
 Alpha  occ. eigenvalues --   -0.77881  -0.74425  -0.72227  -0.69555  -0.67191
 Alpha  occ. eigenvalues --   -0.63204  -0.56737  -0.46074
 Alpha virt. eigenvalues --   -0.18790  -0.09700   0.01376   0.08327   0.10824
 Alpha virt. eigenvalues --    0.11965   0.13325   0.14864   0.15718   0.17582
 Alpha virt. eigenvalues --    0.19344   0.22650   0.23370   0.25032   0.27730
 Alpha virt. eigenvalues --    0.28915   0.34926   0.39122   0.40165   0.48785
 Alpha virt. eigenvalues --    0.53913   0.67360   0.72134   0.73643   0.74851
 Alpha virt. eigenvalues --    0.77832   0.79985   0.80269   0.82686   0.87549
 Alpha virt. eigenvalues --    0.88507   0.89221   0.90878   0.91530   0.94414
 Alpha virt. eigenvalues --    0.95275   0.96211   1.01094   1.02919   1.05226
 Alpha virt. eigenvalues --    1.08239   1.13613   1.14849   1.15929   1.18880
 Alpha virt. eigenvalues --    1.22351   1.22908   1.27146   1.29418   1.32401
 Alpha virt. eigenvalues --    1.42578   1.46912   1.51901   1.55173   1.57388
 Alpha virt. eigenvalues --    1.65761   1.69603   1.80881   1.86022   1.92168
 Alpha virt. eigenvalues --    2.13556   2.43494
          Condensed to atoms (all electrons):
               1          2          3          4          5          6
     1  C    5.149441   0.556605  -0.078002   0.297659  -0.001170  -0.058579
     2  C    0.556605   5.230356   0.342070  -0.084655  -0.107916   0.001033
     3  C   -0.078002   0.342070   5.176906   0.000749   0.482601   0.009610
     4  C    0.297659  -0.084655   0.000749   5.521721   0.007764   0.211379
     5  C   -0.001170  -0.107916   0.482601   0.007764   5.443642  -0.113752
     6  C   -0.058579   0.001033   0.009610   0.211379  -0.113752   5.652865
     7  C   -0.012161   0.001719  -0.113587  -0.080514   0.330972   0.190301
     8  H    0.396880  -0.027734   0.001872  -0.041710  -0.000084   0.001435
     9  H   -0.032107   0.393808  -0.037108   0.001997   0.002626  -0.000057
    10  H    0.001162  -0.024764   0.388502   0.000012  -0.034634  -0.000044
    11  H   -0.000006   0.001620  -0.018755   0.000030   0.371339   0.000924
    12  H    0.001148   0.000206  -0.000099   0.001879  -0.025610  -0.030506
    13  C   -0.074517   0.001211  -0.000017   0.487227   0.000010  -0.060516
    14  H    0.001823   0.000115   0.000000  -0.056756   0.000001   0.002154
    15  H    0.002391  -0.000041   0.000002  -0.056595  -0.000001  -0.000677
    16  H    0.001705   0.000112   0.000920  -0.035408  -0.002339   0.381702
    17  H    0.001898  -0.000020  -0.000112  -0.028645   0.003152   0.373148
               7          8          9         10         11         12
     1  C   -0.012161   0.396880  -0.032107   0.001162  -0.000006   0.001148
     2  C    0.001719  -0.027734   0.393808  -0.024764   0.001620   0.000206
     3  C   -0.113587   0.001872  -0.037108   0.388502  -0.018755  -0.000099
     4  C   -0.080514  -0.041710   0.001997   0.000012   0.000030   0.001879
     5  C    0.330972  -0.000084   0.002626  -0.034634   0.371339  -0.025610
     6  C    0.190301   0.001435  -0.000057  -0.000044   0.000924  -0.030506
     7  C    5.325893   0.000059   0.000029   0.001460  -0.021574   0.352719
     8  H    0.000059   0.372027  -0.002108  -0.000020   0.000000   0.000006
     9  H    0.000029  -0.002108   0.380584  -0.001168  -0.000032   0.000006
    10  H    0.001460  -0.000020  -0.001168   0.344757  -0.001733  -0.000008
    11  H   -0.021574   0.000000  -0.000032  -0.001733   0.322204  -0.000181
    12  H    0.352719   0.000006   0.000006  -0.000008  -0.000181   0.323597
    13  C    0.002258  -0.000287  -0.000047   0.000000   0.000000  -0.000119
    14  H   -0.000035   0.001143  -0.000001   0.000000   0.000000   0.000000
    15  H   -0.000019   0.000073   0.000000  -0.000000   0.000000   0.000003
    16  H   -0.044190  -0.000000  -0.000001  -0.000009  -0.000089   0.000951
    17  H   -0.037732  -0.000024   0.000001   0.000000  -0.000029  -0.000388
              13         14         15         16         17
     1  C   -0.074517   0.001823   0.002391   0.001705   0.001898
     2  C    0.001211   0.000115  -0.000041   0.000112  -0.000020
     3  C   -0.000017   0.000000   0.000002   0.000920  -0.000112
     4  C    0.487227  -0.056756  -0.056595  -0.035408  -0.028645
     5  C    0.000010   0.000001  -0.000001  -0.002339   0.003152
     6  C   -0.060516   0.002154  -0.000677   0.381702   0.373148
     7  C    0.002258  -0.000035  -0.000019  -0.044190  -0.037732
     8  H   -0.000287   0.001143   0.000073  -0.000000  -0.000024
     9  H   -0.000047  -0.000001   0.000000  -0.000001   0.000001
    10  H    0.000000   0.000000  -0.000000  -0.000009   0.000000
    11  H    0.000000   0.000000   0.000000  -0.000089  -0.000029
    12  H   -0.000119   0.000000   0.000003   0.000951  -0.000388
    13  C    5.164342   0.395278   0.396031  -0.002755  -0.002640
    14  H    0.395278   0.382249  -0.010143  -0.000033   0.000073
    15  H    0.396031  -0.010143   0.397934   0.000168   0.000774
    16  H   -0.002755  -0.000033   0.000168   0.366633  -0.014478
    17  H   -0.002640   0.000073   0.000774  -0.014478   0.389919
 Mulliken charges:
               1
     1  C   -0.154171
     2  C   -0.283725
     3  C   -0.155553
     4  C   -0.146134
     5  C   -0.356603
     6  C   -0.560415
     7  C    0.104403
     8  H    0.298474
     9  H    0.293578
    10  H    0.326487
    11  H    0.346281
    12  H    0.376394
    13  C   -0.305461
    14  H    0.284131
    15  H    0.270101
    16  H    0.347110
    17  H    0.315101
 Sum of Mulliken charges =   1.00000
 Mulliken charges with hydrogens summed into heavy atoms:
               1
     1  C    0.144304
     2  C    0.009853
     3  C    0.170934
     4  C   -0.146134
     5  C   -0.010321
     6  C    0.101797
     7  C    0.480797
    13  C    0.248771
 Electronic spatial extent (au):  <R**2>=            889.1247
 Charge=              1.0000 electrons
 Dipole moment (field-independent basis, Debye):
    X=             -0.3397    Y=             -3.2926    Z=              1.1747  Tot=              3.5123
 Quadrupole moment (field-independent basis, Debye-Ang):
   XX=            -28.0641   YY=            -31.5680   ZZ=            -47.6296
   XY=              1.3319   XZ=              0.7990   YZ=             -1.0746
 Traceless Quadrupole moment (field-independent basis, Debye-Ang):
   XX=              7.6898   YY=              4.1859   ZZ=            -11.8757
   XY=              1.3319   XZ=              0.7990   YZ=             -1.0746
 Octapole moment (field-independent basis, Debye-Ang**2):
  XXX=              7.6642  YYY=             -6.2823  ZZZ=              3.3025  XYY=             -2.5577
  XXY=              2.3539  XXZ=             -7.1761  XZZ=             -1.8632  YZZ=             -9.4770
  YYZ=              5.9125  XYZ=              3.0071
 Hexadecapole moment (field-independent basis, Debye-Ang**3):
 XXXX=           -565.1761 YYYY=           -325.9293 ZZZZ=            -72.5703 XXXY=             -0.8352
 XXXZ=             22.1810 YYYX=              3.8969 YYYZ=             -1.9161 ZZZX=             -2.7997
 ZZZY=             -5.6526 XXYY=           -144.5371 XXZZ=           -145.6329 YYZZ=            -72.9410
 XXYZ=              5.5910 YYXZ=              1.6283 ZZXY=              2.9829
 N-N= 3.334005338872D+02 E-N=-1.366809642481D+03  KE= 3.053231884482D+02
 Calling FoFJK, ICntrl=      2127 FMM=F ISym2X=0 I1Cent= 0 IOpClX= 0 NMat=1 NMatS=1 NMatT=0.
 ***** Axes restored to original set *****
 -------------------------------------------------------------------
 Center     Atomic                   Forces (Hartrees/Bohr)
 Number     Number              X              Y              Z
 -------------------------------------------------------------------
      1        6           0.086706653   -0.003805482    0.005398448
      2        6          -0.067694727   -0.024652396   -0.007489797
      3        6          -0.014705981    0.027419486    0.002438645
      4        6          -0.049553323   -0.015481159   -0.003699546
      5        6          -0.013856503   -0.017321863    0.007466757
      6        6           0.012867971    0.001272105    0.014948975
      7        6           0.023994039    0.017816838   -0.041110906
      8        1          -0.000517901   -0.000303681   -0.003163735
      9        1          -0.000471328   -0.002425683    0.000850140
     10        1           0.000741260    0.002053988   -0.006365671
     11        1           0.000513917    0.001389644    0.018365619
     12        1          -0.000256969    0.002514649    0.006382932
     13        6           0.032167121    0.011781878    0.013251784
     14        1          -0.003237547    0.001684204   -0.003852369
     15        1          -0.005708507   -0.003619612   -0.000847959
     16        1           0.009055475    0.003012523   -0.006087246
     17        1          -0.010043650   -0.001335437    0.003513926
 -------------------------------------------------------------------
 Cartesian Forces:  Max     0.086706653 RMS     0.020830175

 GradGradGradGradGradGradGradGradGradGradGradGradGradGradGradGradGradGrad
 Berny optimization.
 FormGI is forming the generalized inverse of G from B-inverse, IUseBI=4.
 Internal  Forces:  Max     0.066320544 RMS     0.010682226
 Search for a local minimum.
 Step number   1 out of a maximum of   90
 All quantities printed in internal units (Hartrees-Bohrs-Radians)
 Mixed Optimization -- RFO/linear search
 Second derivative matrix not updated -- first step.
 ITU=  0
     Eigenvalues ---    0.00817   0.00831   0.01369   0.01654   0.01758
     Eigenvalues ---    0.01841   0.01887   0.02071   0.02341   0.02681
     Eigenvalues ---    0.02681   0.02984   0.05751   0.07255   0.08915
     Eigenvalues ---    0.10018   0.15981   0.15997   0.15998   0.16000
     Eigenvalues ---    0.16000   0.16000   0.16000   0.16093   0.18869
     Eigenvalues ---    0.22000   0.23086   0.25000   0.29307   0.31541
     Eigenvalues ---    0.31740   0.37230   0.37230   0.37230   0.37230
     Eigenvalues ---    0.37230   0.37230   0.37230   0.37230   0.37230
     Eigenvalues ---    0.39291   0.39453   0.43737   0.53930   0.54834
 RFO step:  Lambda=-3.16829217D-02 EMin= 8.16752477D-03
 Linear search not attempted -- first point.
 Iteration  1 RMS(Cart)=  0.06560509 RMS(Int)=  0.00315874
 Iteration  2 RMS(Cart)=  0.00371627 RMS(Int)=  0.00116814
 Iteration  3 RMS(Cart)=  0.00000786 RMS(Int)=  0.00116812
 Iteration  4 RMS(Cart)=  0.00000001 RMS(Int)=  0.00116812
 Variable       Old X    -DE/DX   Delta X   Delta X   Delta X     New X
                                 (Linear)    (Quad)   (Total)
    R1        2.65639  -0.06632   0.00000  -0.14388  -0.14297   2.51342
    R2        2.71135   0.02064   0.00000   0.04268   0.04308   2.75444
    R3        2.02201   0.00137   0.00000   0.00339   0.00339   2.02540
    R4        2.70939   0.01733   0.00000   0.03692   0.03758   2.74697
    R5        2.02201   0.00164   0.00000   0.00407   0.00407   2.02608
    R6        2.54029  -0.00874   0.00000  -0.01302  -0.01346   2.52683
    R7        2.02201   0.00156   0.00000   0.00386   0.00386   2.02586
    R8        2.88497   0.01452   0.00000   0.04465   0.04424   2.92921
    R9        2.56096  -0.02594   0.00000  -0.04543  -0.04543   2.51553
   R10        2.83198  -0.03461   0.00000  -0.09115  -0.09252   2.73946
   R11        2.02201   0.00314   0.00000   0.00777   0.00777   2.02978
   R12        2.82394  -0.01511   0.00000  -0.03517  -0.03486   2.78908
   R13        2.02201   0.00908   0.00000   0.02247   0.02247   2.04448
   R14        2.02201   0.00893   0.00000   0.02210   0.02210   2.04410
   R15        2.02201   0.00594   0.00000   0.01469   0.01469   2.03670
   R16        2.02201   0.00076   0.00000   0.00188   0.00188   2.02389
   R17        2.02201   0.00120   0.00000   0.00298   0.00298   2.02499
    A1        2.27261   0.00489   0.00000   0.01182   0.01117   2.28378
    A2        2.00520  -0.00214   0.00000  -0.00449  -0.00424   2.00096
    A3        2.00526  -0.00275   0.00000  -0.00756  -0.00727   1.99799
    A4        2.27439  -0.00523   0.00000  -0.02388  -0.02427   2.25012
    A5        2.00411   0.00140   0.00000   0.00565   0.00583   2.00994
    A6        2.00458   0.00384   0.00000   0.01836   0.01853   2.02311
    A7        2.17406   0.01154   0.00000   0.05917   0.05639   2.23046
    A8        2.05452  -0.00655   0.00000  -0.03364  -0.03281   2.02171
    A9        2.05460  -0.00498   0.00000  -0.02546  -0.02452   2.03008
   A10        2.16560  -0.00618   0.00000  -0.01800  -0.02041   2.14520
   A11        2.05880   0.00802   0.00000   0.02651   0.02702   2.08582
   A12        2.05878  -0.00184   0.00000  -0.00849  -0.00785   2.05093
   A13        2.05435  -0.00272   0.00000   0.01391   0.00927   2.06363
   A14        2.11450   0.01065   0.00000   0.04149   0.04378   2.15828
   A15        2.11433  -0.00793   0.00000  -0.05542  -0.05309   2.06124
   A16        1.85069   0.00054   0.00000   0.01896   0.01856   1.86925
   A17        1.92135   0.00039   0.00000   0.00037  -0.00090   1.92045
   A18        1.93405  -0.00338   0.00000  -0.03311  -0.03147   1.90258
   A19        1.93425  -0.00405   0.00000  -0.02601  -0.02515   1.90910
   A20        1.92114   0.00289   0.00000   0.00799   0.00759   1.92874
   A21        1.90225   0.00343   0.00000   0.03044   0.03044   1.93269
   A22        2.03753   0.00767   0.00000   0.05489   0.05227   2.08980
   A23        2.12286  -0.00436   0.00000  -0.03079  -0.03050   2.09237
   A24        2.12240  -0.00343   0.00000  -0.02574  -0.02511   2.09729
   A25        2.09440   0.00077   0.00000   0.00401   0.00386   2.09826
   A26        2.09440   0.00625   0.00000   0.03262   0.03247   2.12686
   A27        2.09440  -0.00702   0.00000  -0.03663  -0.03678   2.05761
    D1        0.06596   0.00106   0.00000   0.01355   0.01331   0.07927
    D2       -3.05846   0.00006   0.00000   0.00365   0.00297  -3.05549
    D3       -3.09352   0.00075   0.00000  -0.00327  -0.00352  -3.09704
    D4        0.06525  -0.00025   0.00000  -0.01316  -0.01386   0.05138
    D5       -0.11305   0.00380   0.00000   0.05706   0.05693  -0.05612
    D6        3.02929   0.00140   0.00000   0.00221   0.00140   3.03068
    D7        3.04643   0.00410   0.00000   0.07385   0.07371   3.12015
    D8       -0.09442   0.00169   0.00000   0.01900   0.01818  -0.07623
    D9        0.23584   0.00167   0.00000   0.04096   0.03998   0.27582
   D10       -2.90404  -0.00085   0.00000  -0.00886  -0.01028  -2.91432
   D11       -2.92294   0.00265   0.00000   0.05075   0.05029  -2.87265
   D12        0.22037   0.00013   0.00000   0.00094   0.00003   0.22040
   D13        0.24720  -0.00917   0.00000  -0.14619  -0.14799   0.09920
   D14       -2.89745  -0.00823   0.00000  -0.15376  -0.15553  -3.05299
   D15       -2.89611  -0.00665   0.00000  -0.09638  -0.09753  -2.99364
   D16        0.24243  -0.00571   0.00000  -0.10394  -0.10508   0.13735
   D17       -0.59012   0.00008   0.00000  -0.06190  -0.06253  -0.65264
   D18        1.50308  -0.00422   0.00000  -0.08165  -0.08224   1.42084
   D19       -2.67451  -0.00187   0.00000  -0.06481  -0.06525  -2.73976
   D20        2.55073   0.00249   0.00000  -0.00704  -0.00803   2.54271
   D21       -1.63926  -0.00182   0.00000  -0.02679  -0.02773  -1.66699
   D22        0.46634   0.00054   0.00000  -0.00996  -0.01075   0.45559
   D23       -0.00035  -0.00200   0.00000  -0.02770  -0.02714  -0.02748
   D24        3.14124  -0.00007   0.00000   0.00526   0.00583  -3.13611
   D25       -3.14124  -0.00425   0.00000  -0.07913  -0.07969   3.06225
   D26        0.00035  -0.00232   0.00000  -0.04616  -0.04673  -0.04638
   D27       -1.34364   0.00976   0.00000   0.17110   0.17030  -1.17334
   D28        1.76842   0.00535   0.00000   0.10877   0.10739   1.87581
   D29        1.80101   0.00879   0.00000   0.17848   0.17724   1.97825
   D30       -1.37012   0.00438   0.00000   0.11615   0.11433  -1.25579
   D31        1.49077  -0.00292   0.00000  -0.03112  -0.03396   1.45681
   D32       -1.62130   0.00150   0.00000   0.03129   0.02922  -1.59208
   D33       -0.59399  -0.00151   0.00000  -0.02875  -0.03002  -0.62401
   D34        2.57713   0.00292   0.00000   0.03366   0.03316   2.61029
   D35       -2.69958  -0.00507   0.00000  -0.05521  -0.05656  -2.75614
   D36        0.47154  -0.00065   0.00000   0.00720   0.00662   0.47816
         Item               Value     Threshold  Converged?
 Maximum Force            0.066321     0.000450     NO 
 RMS     Force            0.010682     0.000300     NO 
 Maximum Displacement     0.348254     0.001800     NO 
 RMS     Displacement     0.065875     0.001200     NO 
 Predicted change in Energy=-2.001566D-02
 GradGradGradGradGradGradGradGradGradGradGradGradGradGradGradGradGradGrad

                          Input orientation:                          
 ---------------------------------------------------------------------
 Center     Atomic      Atomic             Coordinates (Angstroms)
 Number     Number       Type             X           Y           Z
 ---------------------------------------------------------------------
      1          6           0       -0.954973    1.134966   -0.425840
      2          6           0        0.371248    1.142948   -0.325385
      3          6           0        1.246296    2.210983    0.129201
      4          6           0       -1.934213    2.191769   -0.204910
      5          6           0        0.910959    3.309940    0.813154
      6          6           0       -1.547296    3.607812    0.292924
      7          6           0       -0.457356    3.440193    1.273874
      8          1           0       -1.373000    0.203077   -0.750771
      9          1           0        0.856783    0.236214   -0.628048
     10          1           0        2.290376    2.078143   -0.074566
     11          1           0        1.601362    4.098299    1.048848
     12          1           0       -0.684084    3.328859    2.321632
     13          6           0       -3.214461    1.970378   -0.494634
     14          1           0       -3.518464    1.031484   -0.910677
     15          1           0       -3.964873    2.721873   -0.351755
     16          1           0       -1.195737    4.208625   -0.535280
     17          1           0       -2.409599    4.065255    0.759014
 ---------------------------------------------------------------------
                    Distance matrix (angstroms):
                    1          2          3          4          5
     1  C    0.000000
     2  C    1.330044   0.000000
     3  C    2.512263   1.453635   0.000000
     4  C    1.457585   2.535684   3.198068   0.000000
     5  C    3.122070   2.506674   1.337142   3.222076   0.000000
     6  C    2.642430   3.184128   3.127634   1.550072   2.530294
     7  C    2.907012   2.919169   2.392418   2.434435   1.449661
     8  H    1.071795   2.026502   3.415662   2.137246   4.161121
     9  H    2.032511   1.072155   2.150548   3.434079   3.395260
    10  H    3.397833   2.149547   1.072041   4.228127   2.051381
    11  H    4.182211   3.483647   2.129269   4.207976   1.074112
    12  H    3.526351   3.591467   3.127742   3.039608   2.195456
    13  C    2.409965   3.683828   4.510588   1.331160   4.530324
    14  H    2.610988   3.935079   5.017519   2.086676   5.270934
    15  H    3.403419   4.614720   5.258194   2.103842   5.047433
    16  H    3.085015   3.449329   3.224226   2.173062   2.657834
    17  H    3.479426   4.177189   4.147355   2.159882   3.405810
                    6          7          8          9         10
     6  C    0.000000
     7  C    1.475916   0.000000
     8  H    3.565375   3.926386   0.000000
     9  H    4.242106   3.950917   2.233403   0.000000
    10  H    4.147610   3.350150   4.170545   2.398798   0.000000
    11  H    3.275064   2.173030   5.220940   4.275754   2.412018
    12  H    2.222298   1.077774   4.436754   4.543054   4.019138
    13  C    2.465944   3.590209   2.565139   4.427206   5.521893
    14  H    3.460003   4.465929   2.305394   4.455908   5.961308
    15  H    2.654275   3.932089   3.636118   5.431685   6.294392
    16  H    1.081893   2.099699   4.015255   4.472303   4.111472
    17  H    1.081693   2.113536   4.274390   5.220608   5.170420
                   11         12         13         14         15
    11  H    0.000000
    12  H    2.726771   0.000000
    13  C    5.486578   4.022392   0.000000
    14  H    6.281537   4.874369   1.070995   0.000000
    15  H    5.902475   4.275396   1.071578   1.835508   0.000000
    16  H    3.216426   3.032775   3.014406   3.953505   3.148368
    17  H    4.021555   2.441609   2.570593   3.636099   2.336100
                   16         17
    16  H    0.000000
    17  H    1.780228   0.000000
 Stoichiometry    C8H9(1+)
 Framework group  C1[X(C8H9)]
 Deg. of freedom    45
 Full point group                 C1      NOp   1
 Largest Abelian subgroup         C1      NOp   1
 Largest concise Abelian subgroup C1      NOp   1
                         Standard orientation:                         
 ---------------------------------------------------------------------
 Center     Atomic      Atomic             Coordinates (Angstroms)
 Number     Number       Type             X           Y           Z
 ---------------------------------------------------------------------
      1          6           0        0.497118    1.287109    0.127741
      2          6           0       -0.808493    1.522811    0.033719
      3          6           0       -1.893502    0.579927   -0.182566
      4          6           0        1.257906    0.055005   -0.038616
      5          6           0       -1.861906   -0.750238   -0.049849
      6          6           0        0.590081   -1.316605   -0.313240
      7          6           0       -0.655965   -1.358523    0.476659
      8          1           0        1.094057    2.153347    0.332782
      9          1           0       -1.093589    2.552315    0.125131
     10          1           0       -2.841522    1.009517   -0.439436
     11          1           0       -2.684064   -1.393478   -0.302861
     12          1           0       -0.650497   -1.762626    1.475793
     13          6           0        2.588203    0.097871   -0.017195
     14          1           0        3.095636    1.034204    0.096046
     15          1           0        3.184598   -0.783801   -0.140674
     16          1           0        0.352042   -1.409054   -1.364564
     17          1           0        1.262684   -2.104564   -0.002137
 ---------------------------------------------------------------------
 Rotational constants (GHZ):           3.7111414           1.9971365           1.3619107
 Standard basis: 3-21G (6D, 7F)
 There are    90 symmetry adapted cartesian basis functions of A   symmetry.
 There are    90 symmetry adapted basis functions of A   symmetry.
    90 basis functions,   147 primitive gaussians,    90 cartesian basis functions
    28 alpha electrons       28 beta electrons
       nuclear repulsion energy       335.0672608277 Hartrees.
 NAtoms=   17 NActive=   17 NUniq=   17 SFac= 1.00D+00 NAtFMM=   60 NAOKFM=F Big=F
 Integral buffers will be    131072 words long.
 Raffenetti 1 integral format.
 Two-electron integral symmetry is turned on.
 One-electron integrals computed using PRISM.
 NBasis=    90 RedAO= T EigKep=  3.58D-03  NBF=    90
 NBsUse=    90 1.00D-06 EigRej= -1.00D+00 NBFU=    90
 Initial guess from the checkpoint file:  "cation_isomer.chk"
 B after Tr=    -0.000000   -0.000000   -0.000000
         Rot=    0.999918   -0.002823    0.000023    0.012509 Ang=  -1.47 deg.
 ExpMin= 1.83D-01 ExpMax= 1.72D+02 ExpMxC= 1.72D+02 IAcc=3 IRadAn=         5 AccDes= 0.00D+00
 Harris functional with IExCor=  205 and IRadAn=       5 diagonalized for initial guess.
 HarFok:  IExCor=  205 AccDes= 0.00D+00 IRadAn=         5 IDoV= 1 UseB2=F ITyADJ=14
 ICtDFT=  3500011 ScaDFX=  1.000000  1.000000  1.000000  1.000000
 FoFCou: FMM=F IPFlag=           0 FMFlag=      100000 FMFlg1=           0
         NFxFlg=           0 DoJE=T BraDBF=F KetDBF=T FulRan=T
         wScrn=  0.000000 ICntrl=       500 IOpCl=  0 I1Cent=   200000004 NGrid=           0
         NMat0=    1 NMatS0=      1 NMatT0=    0 NMatD0=    1 NMtDS0=    0 NMtDT0=    0
 Petite list used in FoFCou.
 Keep R1 ints in memory in canonical form, NReq=9231737.
 Requested convergence on RMS density matrix=1.00D-08 within 128 cycles.
 Requested convergence on MAX density matrix=1.00D-06.
 Requested convergence on             energy=1.00D-06.
 No special actions if energy rises.
 SCF Done:  E(RHF) =  -306.108873164     A.U. after   15 cycles
            NFock= 15  Conv=0.83D-08     -V/T= 2.0018
 Calling FoFJK, ICntrl=      2127 FMM=F ISym2X=0 I1Cent= 0 IOpClX= 0 NMat=1 NMatS=1 NMatT=0.
 ***** Axes restored to original set *****
 -------------------------------------------------------------------
 Center     Atomic                   Forces (Hartrees/Bohr)
 Number     Number              X              Y              Z
 -------------------------------------------------------------------
      1        6           0.002036363   -0.000235224   -0.004801256
      2        6           0.002397565   -0.005144312    0.001366894
      3        6           0.001981456    0.006064969   -0.010385414
      4        6          -0.011963498   -0.006640351    0.002670594
      5        6          -0.017649821    0.001470354    0.002078714
      6        6           0.006292626   -0.000001969    0.003257852
      7        6           0.009437322    0.001375282   -0.009217601
      8        1          -0.004849663    0.000996190   -0.001233441
      9        1           0.004452758    0.001884527    0.002340466
     10        1           0.000631763   -0.000423829   -0.001669159
     11        1           0.004381665   -0.007282239    0.013605386
     12        1           0.000550957    0.011321046    0.002292025
     13        6           0.006721934    0.002451484    0.002947117
     14        1          -0.002231391    0.000328309   -0.001536808
     15        1          -0.002081661   -0.002222986    0.000463561
     16        1           0.000483367   -0.002091743   -0.001249212
     17        1          -0.000591743   -0.001849507   -0.000929718
 -------------------------------------------------------------------
 Cartesian Forces:  Max     0.017649821 RMS     0.005396656

 GradGradGradGradGradGradGradGradGradGradGradGradGradGradGradGradGradGrad
 Berny optimization.
 Using GEDIIS/GDIIS optimizer.
 FormGI is forming the generalized inverse of G from B-inverse, IUseBI=4.
 Internal  Forces:  Max     0.012641325 RMS     0.003528067
 Search for a local minimum.
 Step number   2 out of a maximum of   90
 All quantities printed in internal units (Hartrees-Bohrs-Radians)
 Mixed Optimization -- RFO/linear search
 Update second derivatives using D2CorX and points    1    2
 DE= -2.15D-02 DEPred=-2.00D-02 R= 1.07D+00
 TightC=F SS=  1.41D+00  RLast= 5.08D-01 DXNew= 5.0454D-01 1.5252D+00
 Trust test= 1.07D+00 RLast= 5.08D-01 DXMaxT set to 5.05D-01
 ITU=  1  0
 Use linear search instead of GDIIS.
     Eigenvalues ---    0.00707   0.00846   0.01352   0.01624   0.01754
     Eigenvalues ---    0.01847   0.01884   0.02098   0.02390   0.02612
     Eigenvalues ---    0.02679   0.02710   0.05771   0.07284   0.08987
     Eigenvalues ---    0.10055   0.15364   0.15897   0.15976   0.15996
     Eigenvalues ---    0.16000   0.16000   0.16285   0.17062   0.19198
     Eigenvalues ---    0.22368   0.22810   0.25006   0.28053   0.29851
     Eigenvalues ---    0.31808   0.37184   0.37230   0.37230   0.37230
     Eigenvalues ---    0.37230   0.37230   0.37230   0.37230   0.37348
     Eigenvalues ---    0.39203   0.39367   0.51849   0.53933   0.57869
 RFO step:  Lambda=-1.56681851D-02 EMin= 7.07045479D-03
 Quartic linear search produced a step of  0.35452.
 Iteration  1 RMS(Cart)=  0.10006826 RMS(Int)=  0.02432312
 Iteration  2 RMS(Cart)=  0.02586728 RMS(Int)=  0.00252735
 Iteration  3 RMS(Cart)=  0.00058787 RMS(Int)=  0.00245548
 Iteration  4 RMS(Cart)=  0.00000075 RMS(Int)=  0.00245548
 Variable       Old X    -DE/DX   Delta X   Delta X   Delta X     New X
                                 (Linear)    (Quad)   (Total)
    R1        2.51342   0.00790  -0.05069   0.02001  -0.02883   2.48459
    R2        2.75444   0.00350   0.01527   0.00411   0.02002   2.77446
    R3        2.02540   0.00140   0.00120   0.00418   0.00539   2.03079
    R4        2.74697   0.00226   0.01332   0.00748   0.02223   2.76920
    R5        2.02608  -0.00024   0.00144  -0.00081   0.00064   2.02672
    R6        2.52683   0.00339  -0.00477   0.01006   0.00455   2.53139
    R7        2.02586   0.00099   0.00137   0.00292   0.00428   2.03015
    R8        2.92921   0.00601   0.01568   0.01668   0.03088   2.96009
    R9        2.51553  -0.00282  -0.01611  -0.00557  -0.02167   2.49386
   R10        2.73946  -0.01264  -0.03280  -0.03830  -0.07344   2.66602
   R11        2.02978   0.00046   0.00275   0.00123   0.00399   2.03376
   R12        2.78908  -0.00275  -0.01236  -0.00516  -0.01674   2.77233
   R13        2.04448  -0.00005   0.00797  -0.00060   0.00736   2.05185
   R14        2.04410  -0.00071   0.00783  -0.00261   0.00522   2.04933
   R15        2.03670   0.00094   0.00521   0.00257   0.00778   2.04447
   R16        2.02389   0.00094   0.00067   0.00283   0.00349   2.02738
   R17        2.02499  -0.00004   0.00106  -0.00018   0.00088   2.02586
    A1        2.28378  -0.00138   0.00396  -0.01199  -0.00977   2.27401
    A2        2.00096   0.00559  -0.00150   0.03914   0.03834   2.03930
    A3        1.99799  -0.00418  -0.00258  -0.02629  -0.02814   1.96985
    A4        2.25012  -0.00111  -0.00860   0.00387  -0.00628   2.24385
    A5        2.00994   0.00585   0.00207   0.03417   0.03585   2.04579
    A6        2.02311  -0.00473   0.00657  -0.03770  -0.03107   1.99204
    A7        2.23046   0.00031   0.01999   0.01793   0.03256   2.26302
    A8        2.02171  -0.00133  -0.01163  -0.01796  -0.02936   1.99235
    A9        2.03008   0.00093  -0.00869  -0.00313  -0.01081   2.01928
   A10        2.14520  -0.00345  -0.00724  -0.02187  -0.03517   2.11003
   A11        2.08582   0.00190   0.00958   0.00982   0.02057   2.10639
   A12        2.05093   0.00147  -0.00278   0.00935   0.00842   2.05936
   A13        2.06363   0.00429   0.00329   0.04119   0.03563   2.09926
   A14        2.15828  -0.00250   0.01552  -0.02655  -0.00798   2.15030
   A15        2.06124  -0.00180  -0.01882  -0.01529  -0.03060   2.03063
   A16        1.86925   0.00511   0.00658   0.03786   0.03995   1.90920
   A17        1.92045  -0.00407  -0.00032  -0.03757  -0.03899   1.88145
   A18        1.90258  -0.00144  -0.01116  -0.00684  -0.01470   1.88789
   A19        1.90910   0.00070  -0.00892   0.01610   0.00968   1.91878
   A20        1.92874  -0.00175   0.00269  -0.01280  -0.00949   1.91925
   A21        1.93269   0.00150   0.01079   0.00379   0.01367   1.94636
   A22        2.08980   0.00226   0.01853   0.02180   0.03397   2.12378
   A23        2.09237  -0.00042  -0.01081  -0.00346  -0.01233   2.08004
   A24        2.09729  -0.00186  -0.00890  -0.01158  -0.01838   2.07891
   A25        2.09826   0.00123   0.00137   0.00815   0.00946   2.10772
   A26        2.12686   0.00212   0.01151   0.01229   0.02374   2.15060
   A27        2.05761  -0.00334  -0.01304  -0.01990  -0.03300   2.02461
    D1        0.07927   0.00041   0.00472   0.02417   0.02589   0.10516
    D2       -3.05549  -0.00128   0.00105  -0.04063  -0.04385  -3.09934
    D3       -3.09704   0.00127  -0.00125   0.05656   0.05358  -3.04347
    D4        0.05138  -0.00042  -0.00492  -0.00824  -0.01617   0.03522
    D5       -0.05612   0.00331   0.02018   0.10318   0.12096   0.06484
    D6        3.03068   0.00155   0.00050   0.04378   0.04261   3.07329
    D7        3.12015   0.00229   0.02613   0.06979   0.09310  -3.06994
    D8       -0.07623   0.00053   0.00645   0.01039   0.01475  -0.06149
    D9        0.27582  -0.00030   0.01417  -0.02287  -0.01195   0.26387
   D10       -2.91432  -0.00260  -0.00364  -0.10536  -0.11140  -3.02572
   D11       -2.87265   0.00143   0.01783   0.04258   0.05623  -2.81642
   D12        0.22040  -0.00087   0.00001  -0.03992  -0.04322   0.17717
   D13        0.09920  -0.00447  -0.05247  -0.09914  -0.15485  -0.05565
   D14       -3.05299  -0.00586  -0.05514  -0.17280  -0.23038   2.99981
   D15       -2.99364  -0.00211  -0.03458  -0.01596  -0.05372  -3.04736
   D16        0.13735  -0.00349  -0.03725  -0.08962  -0.12926   0.00810
   D17       -0.65264  -0.00308  -0.02217  -0.12765  -0.14963  -0.80227
   D18        1.42084  -0.00150  -0.02915  -0.10692  -0.13716   1.28369
   D19       -2.73976  -0.00312  -0.02313  -0.13024  -0.15282  -2.89258
   D20        2.54271  -0.00137  -0.00285  -0.06941  -0.07374   2.46897
   D21       -1.66699   0.00021  -0.00983  -0.04868  -0.06127  -1.72826
   D22        0.45559  -0.00141  -0.00381  -0.07200  -0.07693   0.37866
   D23       -0.02748  -0.00010  -0.00962   0.01766   0.00888  -0.01861
   D24       -3.13611  -0.00041   0.00207  -0.00158   0.00133  -3.13479
   D25        3.06225  -0.00192  -0.02825  -0.03954  -0.06863   2.99362
   D26       -0.04638  -0.00223  -0.01657  -0.05878  -0.07618  -0.12256
   D27       -1.17334   0.00818   0.06037   0.18258   0.24266  -0.93068
   D28        1.87581   0.00796   0.03807   0.26559   0.30233   2.17814
   D29        1.97825   0.00949   0.06284   0.25218   0.31307   2.29132
   D30       -1.25579   0.00928   0.04053   0.33519   0.37275  -0.88304
   D31        1.45681  -0.00183  -0.01204  -0.03232  -0.04841   1.40839
   D32       -1.59208  -0.00169   0.01036  -0.11601  -0.10837  -1.70045
   D33       -0.62401  -0.00029  -0.01064  -0.01808  -0.03040  -0.65440
   D34        2.61029  -0.00016   0.01176  -0.10176  -0.09035   2.51994
   D35       -2.75614  -0.00149  -0.02005  -0.02516  -0.04773  -2.80387
   D36        0.47816  -0.00136   0.00235  -0.10885  -0.10768   0.37047
         Item               Value     Threshold  Converged?
 Maximum Force            0.012641     0.000450     NO 
 RMS     Force            0.003528     0.000300     NO 
 Maximum Displacement     0.529815     0.001800     NO 
 RMS     Displacement     0.120093     0.001200     NO 
 Predicted change in Energy=-1.580633D-02
 GradGradGradGradGradGradGradGradGradGradGradGradGradGradGradGradGradGrad

                          Input orientation:                          
 ---------------------------------------------------------------------
 Center     Atomic      Atomic             Coordinates (Angstroms)
 Number     Number       Type             X           Y           Z
 ---------------------------------------------------------------------
      1          6           0       -0.944804    1.126970   -0.498405
      2          6           0        0.367110    1.168432   -0.422058
      3          6           0        1.217693    2.234240    0.114557
      4          6           0       -1.946759    2.154811   -0.189882
      5          6           0        0.893681    3.279085    0.887680
      6          6           0       -1.513184    3.597927    0.237994
      7          6           0       -0.451330    3.508582    1.246328
      8          1           0       -1.381961    0.208216   -0.844309
      9          1           0        0.904775    0.296995   -0.741046
     10          1           0        2.269244    2.076716   -0.038953
     11          1           0        1.624244    3.934506    1.329214
     12          1           0       -0.711321    3.591083    2.293268
     13          6           0       -3.228992    1.932806   -0.409381
     14          1           0       -3.560575    1.004458   -0.832719
     15          1           0       -3.993645    2.655872   -0.205043
     16          1           0       -1.142729    4.108859   -0.645550
     17          1           0       -2.378480    4.101259    0.655086
 ---------------------------------------------------------------------
                    Distance matrix (angstroms):
                    1          2          3          4          5
     1  C    0.000000
     2  C    1.314788   0.000000
     3  C    2.505627   1.465399   0.000000
     4  C    1.468181   2.526032   3.180055   0.000000
     5  C    3.151643   2.539201   1.339553   3.239326   0.000000
     6  C    2.640258   3.142231   3.054925   1.566413   2.513315
     7  C    2.993274   2.988254   2.385476   2.476228   1.410799
     8  H    1.074646   2.039500   3.432550   2.129906   4.196256
     9  H    2.041734   1.072492   2.140769   3.447681   3.397900
    10  H    3.382783   2.142396   1.074308   4.219426   2.048539
    11  H    4.221665   3.506922   2.128751   4.269313   1.076221
    12  H    3.730925   3.795424   3.210747   3.123334   2.156166
    13  C    2.423800   3.676463   4.487581   1.319692   4.526728
    14  H    2.639892   3.952498   5.024097   2.083496   5.289055
    15  H    3.423307   4.612565   5.238126   2.107376   5.046623
    16  H    2.992071   3.312956   3.108626   2.161574   2.680725
    17  H    3.497479   4.159324   4.087835   2.165414   3.381880
                    6          7          8          9         10
     6  C    0.000000
     7  C    1.467056   0.000000
     8  H    3.560721   4.016124   0.000000
     9  H    4.207278   4.012850   2.290787   0.000000
    10  H    4.086262   3.332223   4.179854   2.349918   0.000000
    11  H    3.338787   2.120445   5.258013   4.246775   2.395682
    12  H    2.206168   1.081889   4.662395   4.761285   4.076313
    13  C    2.477038   3.597200   2.564156   4.458016   5.512578
    14  H    3.473373   4.501165   2.319589   4.521975   5.980517
    15  H    2.690063   3.921938   3.636010   5.463160   6.291803
    16  H    1.085790   2.101801   3.913023   4.328014   4.017353
    17  H    1.084457   2.101128   4.289174   5.215493   5.116815
                   11         12         13         14         15
    11  H    0.000000
    12  H    2.549941   0.000000
    13  C    5.530227   4.048809   0.000000
    14  H    6.335731   4.957890   1.072844   0.000000
    15  H    5.962343   4.229637   1.072041   1.818982   0.000000
    16  H    3.403855   3.015104   3.023818   3.939330   3.230006
    17  H    4.062518   2.392350   2.560986   3.633331   2.331894
                   16         17
    16  H    0.000000
    17  H    1.794099   0.000000
 Stoichiometry    C8H9(1+)
 Framework group  C1[X(C8H9)]
 Deg. of freedom    45
 Full point group                 C1      NOp   1
 Largest Abelian subgroup         C1      NOp   1
 Largest concise Abelian subgroup C1      NOp   1
                         Standard orientation:                         
 ---------------------------------------------------------------------
 Center     Atomic      Atomic             Coordinates (Angstroms)
 Number     Number       Type             X           Y           Z
 ---------------------------------------------------------------------
      1          6           0        0.533331    1.309014    0.104852
      2          6           0       -0.752899    1.557848   -0.006340
      3          6           0       -1.856979    0.607244   -0.163666
      4          6           0        1.268920    0.043557   -0.009522
      5          6           0       -1.879452   -0.717402    0.034349
      6          6           0        0.531355   -1.283508   -0.394937
      7          6           0       -0.699970   -1.403047    0.393608
      8          1           0        1.174261    2.147844    0.305942
      9          1           0       -1.063686    2.580827    0.078295
     10          1           0       -2.810618    1.067302   -0.345478
     11          1           0       -2.782828   -1.301811    0.009237
     12          1           0       -0.694279   -2.008862    1.289956
     13          6           0        2.586470    0.021529    0.062334
     14          1           0        3.144411    0.929152    0.188497
     15          1           0        3.164316   -0.877505   -0.021955
     16          1           0        0.290436   -1.234232   -1.452514
     17          1           0        1.193335   -2.114120   -0.176050
 ---------------------------------------------------------------------
 Rotational constants (GHZ):           3.6621578           2.0092146           1.3554265
 Standard basis: 3-21G (6D, 7F)
 There are    90 symmetry adapted cartesian basis functions of A   symmetry.
 There are    90 symmetry adapted basis functions of A   symmetry.
    90 basis functions,   147 primitive gaussians,    90 cartesian basis functions
    28 alpha electrons       28 beta electrons
       nuclear repulsion energy       334.9923909020 Hartrees.
 NAtoms=   17 NActive=   17 NUniq=   17 SFac= 1.00D+00 NAtFMM=   60 NAOKFM=F Big=F
 Integral buffers will be    131072 words long.
 Raffenetti 1 integral format.
 Two-electron integral symmetry is turned on.
 One-electron integrals computed using PRISM.
 NBasis=    90 RedAO= T EigKep=  3.49D-03  NBF=    90
 NBsUse=    90 1.00D-06 EigRej= -1.00D+00 NBFU=    90
 Initial guess from the checkpoint file:  "cation_isomer.chk"
 B after Tr=     0.000000    0.000000    0.000000
         Rot=    0.999877   -0.010052   -0.000493    0.011991 Ang=  -1.79 deg.
 ExpMin= 1.83D-01 ExpMax= 1.72D+02 ExpMxC= 1.72D+02 IAcc=3 IRadAn=         5 AccDes= 0.00D+00
 Harris functional with IExCor=  205 and IRadAn=       5 diagonalized for initial guess.
 HarFok:  IExCor=  205 AccDes= 0.00D+00 IRadAn=         5 IDoV= 1 UseB2=F ITyADJ=14
 ICtDFT=  3500011 ScaDFX=  1.000000  1.000000  1.000000  1.000000
 FoFCou: FMM=F IPFlag=           0 FMFlag=      100000 FMFlg1=           0
         NFxFlg=           0 DoJE=T BraDBF=F KetDBF=T FulRan=T
         wScrn=  0.000000 ICntrl=       500 IOpCl=  0 I1Cent=   200000004 NGrid=           0
         NMat0=    1 NMatS0=      1 NMatT0=    0 NMatD0=    1 NMtDS0=    0 NMtDT0=    0
 Petite list used in FoFCou.
 Keep R1 ints in memory in canonical form, NReq=9231738.
 Requested convergence on RMS density matrix=1.00D-08 within 128 cycles.
 Requested convergence on MAX density matrix=1.00D-06.
 Requested convergence on             energy=1.00D-06.
 No special actions if energy rises.
 SCF Done:  E(RHF) =  -306.127414529     A.U. after   15 cycles
            NFock= 15  Conv=0.48D-08     -V/T= 2.0017
 Calling FoFJK, ICntrl=      2127 FMM=F ISym2X=0 I1Cent= 0 IOpClX= 0 NMat=1 NMatS=1 NMatT=0.
 ***** Axes restored to original set *****
 -------------------------------------------------------------------
 Center     Atomic                   Forces (Hartrees/Bohr)
 Number     Number              X              Y              Z
 -------------------------------------------------------------------
      1        6          -0.035715907    0.002685461   -0.003379661
      2        6           0.033626158    0.010258982    0.006629673
      3        6           0.006080261   -0.018471034   -0.022851483
      4        6           0.015197205    0.006698890    0.002947156
      5        6          -0.024384946    0.018813895    0.012810775
      6        6          -0.006804873   -0.013398574   -0.005449703
      7        6           0.011488075   -0.000817278    0.006525665
      8        1           0.000235567   -0.000036556   -0.000118112
      9        1           0.001447891    0.001967252   -0.000824092
     10        1          -0.000059881   -0.001762029    0.000414122
     11        1           0.004101834   -0.011677148    0.007722812
     12        1           0.002807302    0.013524023   -0.003397316
     13        6          -0.009473181   -0.006462572   -0.000565868
     14        1          -0.000543668   -0.000198656   -0.000440927
     15        1           0.000846236    0.000052573    0.000977496
     16        1          -0.001016067   -0.000522976    0.002688230
     17        1           0.002167993   -0.000654253   -0.003688768
 -------------------------------------------------------------------
 Cartesian Forces:  Max     0.035715907 RMS     0.010745661

 GradGradGradGradGradGradGradGradGradGradGradGradGradGradGradGradGradGrad
 Berny optimization.
 Using GEDIIS/GDIIS optimizer.
 FormGI is forming the generalized inverse of G from B-inverse, IUseBI=4.
 Internal  Forces:  Max     0.029432133 RMS     0.005535218
 Search for a local minimum.
 Step number   3 out of a maximum of   90
 All quantities printed in internal units (Hartrees-Bohrs-Radians)
 Mixed Optimization -- RFO/linear search
 Update second derivatives using D2CorX and points    2    3
 DE= -1.85D-02 DEPred=-1.58D-02 R= 1.17D+00
 TightC=F SS=  1.41D+00  RLast= 8.29D-01 DXNew= 8.4853D-01 2.4860D+00
 Trust test= 1.17D+00 RLast= 8.29D-01 DXMaxT set to 8.49D-01
 ITU=  1  1  0
 Use linear search instead of GDIIS.
     Eigenvalues ---    0.00202   0.00869   0.01277   0.01584   0.01779
     Eigenvalues ---    0.01855   0.01964   0.02050   0.02320   0.02417
     Eigenvalues ---    0.02690   0.02709   0.05805   0.07241   0.09354
     Eigenvalues ---    0.10195   0.15516   0.15918   0.15983   0.15991
     Eigenvalues ---    0.15998   0.16311   0.17025   0.17170   0.19417
     Eigenvalues ---    0.22402   0.22483   0.25091   0.27741   0.29891
     Eigenvalues ---    0.32890   0.37216   0.37230   0.37230   0.37230
     Eigenvalues ---    0.37230   0.37230   0.37230   0.37276   0.37394
     Eigenvalues ---    0.39262   0.40963   0.51591   0.53909   0.92087
 RFO step:  Lambda=-1.01949406D-02 EMin= 2.02248293D-03
 Quartic linear search produced a step of  0.85786.
 Iteration  1 RMS(Cart)=  0.12737399 RMS(Int)=  0.04594511
 Iteration  2 RMS(Cart)=  0.05180064 RMS(Int)=  0.00652828
 Iteration  3 RMS(Cart)=  0.00226585 RMS(Int)=  0.00610814
 Iteration  4 RMS(Cart)=  0.00000763 RMS(Int)=  0.00610814
 Iteration  5 RMS(Cart)=  0.00000006 RMS(Int)=  0.00610814
 Variable       Old X    -DE/DX   Delta X   Delta X   Delta X     New X
                                 (Linear)    (Quad)   (Total)
    R1        2.48459   0.02943  -0.02473   0.04035   0.02019   2.50478
    R2        2.77446  -0.00664   0.01718  -0.01141   0.00783   2.78229
    R3        2.03079  -0.00003   0.00462   0.00105   0.00567   2.03646
    R4        2.76920  -0.01281   0.01907  -0.02364  -0.00183   2.76737
    R5        2.02672  -0.00063   0.00055  -0.00099  -0.00045   2.02627
    R6        2.53139   0.02036   0.00391   0.03917   0.04113   2.57251
    R7        2.03015   0.00014   0.00367   0.00152   0.00519   2.03534
    R8        2.96009  -0.00416   0.02649  -0.00776   0.01482   2.97491
    R9        2.49386   0.01003  -0.01859   0.00947  -0.00913   2.48473
   R10        2.66602  -0.00864  -0.06300  -0.04946  -0.11646   2.54956
   R11        2.03376  -0.00116   0.00342  -0.00153   0.00189   2.03565
   R12        2.77233   0.00803  -0.01436   0.02106   0.00744   2.77977
   R13        2.05185  -0.00278   0.00632  -0.00315   0.00317   2.05501
   R14        2.04933  -0.00345   0.00448  -0.00536  -0.00088   2.04845
   R15        2.04447  -0.00293   0.00667  -0.00501   0.00166   2.04613
   R16        2.02738   0.00051   0.00300   0.00216   0.00515   2.03253
   R17        2.02586  -0.00038   0.00075  -0.00046   0.00029   2.02615
    A1        2.27401  -0.00126  -0.00838  -0.00716  -0.01926   2.25475
    A2        2.03930   0.00040   0.03289   0.00267   0.03731   2.07661
    A3        1.96985   0.00087  -0.02414   0.00446  -0.01809   1.95176
    A4        2.24385   0.00030  -0.00538   0.00213  -0.00812   2.23573
    A5        2.04579   0.00173   0.03076   0.00977   0.03962   2.08541
    A6        1.99204  -0.00209  -0.02665  -0.01290  -0.03784   1.95420
    A7        2.26302  -0.00434   0.02793   0.00389   0.01856   2.28158
    A8        1.99235   0.00057  -0.02519  -0.01507  -0.03883   1.95352
    A9        2.01928   0.00361  -0.00927   0.00794   0.00300   2.02228
   A10        2.11003  -0.00037  -0.03017  -0.01271  -0.05452   2.05550
   A11        2.10639  -0.00389   0.01765  -0.00788   0.01263   2.11903
   A12        2.05936   0.00418   0.00722   0.01954   0.03124   2.09060
   A13        2.09926   0.00482   0.03057   0.04272   0.05158   2.15084
   A14        2.15030  -0.00761  -0.00684  -0.04560  -0.04382   2.10648
   A15        2.03063   0.00272  -0.02625   0.00289  -0.01351   2.01713
   A16        1.90920   0.00519   0.03427   0.04873   0.06805   1.97726
   A17        1.88145  -0.00296  -0.03345  -0.02594  -0.05910   1.82236
   A18        1.88789   0.00017  -0.01261   0.00441  -0.00129   1.88659
   A19        1.91878   0.00008   0.00830  -0.00355   0.00977   1.92855
   A20        1.91925  -0.00184  -0.00814  -0.00914  -0.01358   1.90566
   A21        1.94636  -0.00050   0.01173  -0.01311  -0.00389   1.94247
   A22        2.12378   0.00014   0.02914   0.02096   0.03152   2.15530
   A23        2.08004  -0.00008  -0.01058  -0.01215  -0.01425   2.06579
   A24        2.07891  -0.00006  -0.01577  -0.01000  -0.01709   2.06182
   A25        2.10772   0.00122   0.00812   0.00882   0.01692   2.12464
   A26        2.15060  -0.00156   0.02036  -0.00319   0.01716   2.16776
   A27        2.02461   0.00034  -0.02831  -0.00567  -0.03399   1.99062
    D1        0.10516   0.00110   0.02221   0.05232   0.06514   0.17030
    D2       -3.09934  -0.00013  -0.03762   0.03108  -0.01776  -3.11710
    D3       -3.04347   0.00162   0.04596   0.04473   0.08532  -2.95814
    D4        0.03522   0.00040  -0.01387   0.02349   0.00242   0.03764
    D5        0.06484   0.00188   0.10377   0.03502   0.13243   0.19727
    D6        3.07329   0.00143   0.03655   0.02712   0.06200   3.13529
    D7       -3.06994   0.00137   0.07987   0.04237   0.11323  -2.95671
    D8       -0.06149   0.00093   0.01265   0.03448   0.04279  -0.01869
    D9        0.26387  -0.00193  -0.01025  -0.05275  -0.07168   0.19219
   D10       -3.02572  -0.00293  -0.09557  -0.08021  -0.18063   3.07683
   D11       -2.81642  -0.00085   0.04824  -0.03272   0.00382  -2.81260
   D12        0.17717  -0.00185  -0.03708  -0.06018  -0.10513   0.07204
   D13       -0.05565  -0.00191  -0.13284  -0.07008  -0.20918  -0.26482
   D14        2.99981  -0.00267  -0.19764  -0.06976  -0.27103   2.72879
   D15       -3.04736  -0.00067  -0.04608  -0.04067  -0.09396  -3.14132
   D16        0.00810  -0.00144  -0.11088  -0.04034  -0.15581  -0.14771
   D17       -0.80227  -0.00303  -0.12836  -0.05382  -0.17802  -0.98029
   D18        1.28369  -0.00172  -0.11766  -0.04560  -0.16467   1.11902
   D19       -2.89258  -0.00392  -0.13110  -0.07362  -0.20190  -3.09447
   D20        2.46897  -0.00200  -0.06326  -0.04416  -0.10753   2.36144
   D21       -1.72826  -0.00070  -0.05256  -0.03595  -0.09418  -1.82244
   D22        0.37866  -0.00289  -0.06599  -0.06397  -0.13141   0.24725
   D23       -0.01861   0.00013   0.00762  -0.00446   0.00402  -0.01458
   D24       -3.13479  -0.00030   0.00114  -0.00250  -0.00050  -3.13529
   D25        2.99362  -0.00062  -0.05888  -0.01447  -0.07421   2.91942
   D26       -0.12256  -0.00105  -0.06535  -0.01252  -0.07873  -0.20129
   D27       -0.93068   0.00876   0.20817   0.18087   0.38816  -0.54253
   D28        2.17814   0.00881   0.25936   0.13838   0.39517   2.57331
   D29        2.29132   0.00999   0.26857   0.18309   0.44877   2.74009
   D30       -0.88304   0.01003   0.31976   0.14060   0.45578  -0.42726
   D31        1.40839  -0.00286  -0.04153  -0.08903  -0.13728   1.27111
   D32       -1.70045  -0.00291  -0.09296  -0.04653  -0.14433  -1.84477
   D33       -0.65440  -0.00242  -0.02608  -0.08458  -0.11230  -0.76670
   D34        2.51994  -0.00246  -0.07751  -0.04207  -0.11934   2.40060
   D35       -2.80387  -0.00061  -0.04094  -0.05957  -0.10480  -2.90866
   D36        0.37047  -0.00065  -0.09238  -0.01707  -0.11184   0.25863
         Item               Value     Threshold  Converged?
 Maximum Force            0.029432     0.000450     NO 
 RMS     Force            0.005535     0.000300     NO 
 Maximum Displacement     0.690070     0.001800     NO 
 RMS     Displacement     0.169270     0.001200     NO 
 Predicted change in Energy=-2.365728D-02
 GradGradGradGradGradGradGradGradGradGradGradGradGradGradGradGradGradGrad

                          Input orientation:                          
 ---------------------------------------------------------------------
 Center     Atomic      Atomic             Coordinates (Angstroms)
 Number     Number       Type             X           Y           Z
 ---------------------------------------------------------------------
      1          6           0       -0.944093    1.140993   -0.589845
      2          6           0        0.377569    1.230635   -0.544503
      3          6           0        1.191736    2.252651    0.116686
      4          6           0       -1.958068    2.121781   -0.168369
      5          6           0        0.845478    3.231606    0.996989
      6          6           0       -1.471693    3.580215    0.170291
      7          6           0       -0.429444    3.619521    1.207591
      8          1           0       -1.393467    0.238620   -0.970773
      9          1           0        0.974513    0.422029   -0.918065
     10          1           0        2.244607    2.038059    0.042772
     11          1           0        1.575974    3.650488    1.668791
     12          1           0       -0.707621    3.956252    2.198355
     13          6           0       -3.243582    1.873786   -0.290086
     14          1           0       -3.604542    0.953158   -0.713177
     15          1           0       -4.018929    2.556624   -0.003438
     16          1           0       -1.085910    3.962513   -0.771834
     17          1           0       -2.329559    4.151888    0.505396
 ---------------------------------------------------------------------
                    Distance matrix (angstroms):
                    1          2          3          4          5
     1  C    0.000000
     2  C    1.325475   0.000000
     3  C    2.509329   1.464430   0.000000
     4  C    1.472322   2.528007   3.165383   0.000000
     5  C    3.176676   2.568856   1.361316   3.232591   0.000000
     6  C    2.608826   3.074285   2.976433   1.574256   2.484802
     7  C    3.104632   3.070485   2.384666   2.544245   1.349169
     8  H    1.077646   2.074216   3.452849   2.123423   4.224089
     9  H    2.075015   1.072256   2.114018   3.471489   3.402617
    10  H    3.372349   2.117228   1.077056   4.208808   2.071869
    11  H    4.213044   3.491494   2.123821   4.266328   1.077221
    12  H    3.969340   4.016205   3.292896   3.245040   2.092967
    13  C    2.431972   3.686612   4.470017   1.314862   4.496738
    14  H    2.669922   3.995329   5.038019   2.091261   5.283812
    15  H    3.435477   4.623872   5.220906   2.112685   5.011877
    16  H    2.830937   3.107508   2.983415   2.124411   2.719047
    17  H    3.490638   4.118804   4.019666   2.171013   3.342072
                    6          7          8          9         10
     6  C    0.000000
     7  C    1.470993   0.000000
     8  H    3.531912   4.135832   0.000000
     9  H    4.140360   4.088210   2.375657   0.000000
    10  H    4.025592   3.317886   4.183400   2.268898   0.000000
    11  H    3.396869   2.058000   5.236958   4.180493   2.385568
    12  H    2.199603   1.082767   4.933006   5.003237   4.128154
    13  C    2.502686   3.634557   2.561255   4.504917   5.500727
    14  H    3.497283   4.569473   2.337899   4.614306   5.996750
    15  H    2.750697   3.934558   3.633446   5.507041   6.285135
    16  H    1.087465   2.113460   3.741864   4.098994   3.931850
    17  H    1.083992   2.094500   4.285908   5.182179   5.060166
                   11         12         13         14         15
    11  H    0.000000
    12  H    2.364051   0.000000
    13  C    5.497453   4.118265   0.000000
    14  H    6.307702   5.088000   1.075571   0.000000
    15  H    5.941030   4.215639   1.072193   1.801818   0.000000
    16  H    3.624864   2.994189   3.041449   3.924686   3.342089
    17  H    4.105859   2.352672   2.580306   3.652721   2.378603
                   16         17
    16  H    0.000000
    17  H    1.792719   0.000000
 Stoichiometry    C8H9(1+)
 Framework group  C1[X(C8H9)]
 Deg. of freedom    45
 Full point group                 C1      NOp   1
 Largest Abelian subgroup         C1      NOp   1
 Largest concise Abelian subgroup C1      NOp   1
                         Standard orientation:                         
 ---------------------------------------------------------------------
 Center     Atomic      Atomic             Coordinates (Angstroms)
 Number     Number       Type             X           Y           Z
 ---------------------------------------------------------------------
      1          6           0        0.586212    1.321998    0.068436
      2          6           0       -0.704538    1.588095   -0.073129
      3          6           0       -1.822005    0.642838   -0.121223
      4          6           0        1.278865    0.023579    0.022911
      5          6           0       -1.871394   -0.688884    0.156726
      6          6           0        0.467058   -1.223211   -0.491642
      7          6           0       -0.771696   -1.463029    0.264531
      8          1           0        1.269244    2.134137    0.256102
      9          1           0       -1.041115    2.605387   -0.033568
     10          1           0       -2.772389    1.146211   -0.179841
     11          1           0       -2.799575   -1.157897    0.437640
     12          1           0       -0.792279   -2.291640    0.961212
     13          6           0        2.581654   -0.063920    0.177661
     14          1           0        3.193060    0.807769    0.329954
     15          1           0        3.131795   -0.983711    0.147220
     16          1           0        0.240596   -0.989325   -1.529232
     17          1           0        1.105726   -2.095727   -0.415111
 ---------------------------------------------------------------------
 Rotational constants (GHZ):           3.5940776           2.0186954           1.3521499
 Standard basis: 3-21G (6D, 7F)
 There are    90 symmetry adapted cartesian basis functions of A   symmetry.
 There are    90 symmetry adapted basis functions of A   symmetry.
[...]
 7,-4.7884135,0.3128021,-0.1693839,-1.3586629,2.7789654,0.6271232,1.815
 5232,-0.7720547,0.5186985,-0.3230544,-1.3425204,0.8964808,3.2381541,-1
 .2346008,-0.15347,1.8851217,3.92106,1.0140713,-1.0012386,9.304391,3.57
 40769,1.4853202,1.696944,1.0026933,0.7850623,1.2374245,7.7210679,9.873
 8781,-1.6099151,4.7235331,1.0404651,-0.5388831,2.1491668,7.1414325,3.1
 577258,5.896439,4.8839251,47.3533637,7.8609381,0.0219781,3.2600391,-0.
 0484232,-0.0507906,-4.5218605,-0.9454679,-0.8572154,-3.9514355,-1.6181
 245,-0.538635,-10.5346241,-4.7659405,-2.2012733,3.0545751,2.1064292,-0
 .1506143,-3.8715306,1.1984389,14.2136364,-2.2475994,9.4676633,3.533993
 9,6.4460946,-2.1642895,-18.6774665,-1.0923906,-8.2229013,-6.7763111,0.
 740306,-4.2804318,-5.908627,-1.2921036,-7.1116196,-4.2448326,-1.136579
 8,-3.0642912,0.8378736,-0.4659319,1.569169,-1.9898246,0.892009,0.22328
 93,-1.6010577,0.5570759,1.7695096,-0.3709847,-2.9037303,2.8384888,4.27
 75603,-1.7495886,-3.0957065,1.1259417,3.4085496,2.0410146,-11.4154931,
 2.3556272,-8.6412632,-4.6988419,-2.4936063,0.4223319,14.8318827,1.5158
 409,3.1949978,0.4205467,3.7994816,-0.2470277,-4.8248491,0.6552168,1.81
 50086,2.238956,-1.2255044,-1.4336334,-1.525646,-1.0617629,-1.0782312,-
 1.0266058,-0.5760441,-1.1242171,-5.8196316,-1.097791,-3.0958859,-2.186
 2935,1.4395272,-0.0102095,-1.7365598,-0.0812452,-1.9210113,-2.0907038,
 3.5038365,-2.0719926,1.9417454,-1.7801717,1.3806309,1.2516835,-2.00680
 42,2.8103785,-3.9584732,1.9552515,-2.1799411,-1.4203628,-2.1684334,0.8
 54334,-1.8725036,1.4676376,-2.4963352,-3.0507639,12.1954276,-1.5918684
 ,0.1796073,0.338021,-0.5226835,0.1597771,-1.3695429,1.6251102,-1.06969
 72,0.0538078,0.1304326,0.1262769,0.297357,0.5624653,1.0368079,1.650518
 5,0.2359856,0.2556485,4.4528737,1.1458381,1.1453423,3.3430496,1.188731
 2,2.8465353,0.3694936,1.5180269,2.0055191,0.6839405,1.8346104,1.004757
 5,3.6619765,0.8229019,-0.2534571,3.9527231,1.0221538,5.0500915,-0.7313
 179,1.1667402,-1.3977595,0.8778599,-0.803959,-1.0220348,0.1161147,-0.2
 525772,4.9578385,-0.0579491,3.6722543,2.5470849,-0.1582933,-0.0631239,
 3.3169708,-0.1519071,3.9911033,5.4364668,-37.1969698,-6.990258,0.41119
 73,-3.4608735,0.0413167,0.2988084,-7.8796503,-1.6587011,0.7802104,3.68
 52055,1.6478973,0.0894873,-0.5597391,4.258513,2.6910502,-9.906963,-2.9
 845861,0.1145543,-4.0658594,-2.3513212,-1.3440531,0.091146,-0.3301235,
 -0.1382323,-2.9933234,-4.2289711,-6.044507,-1.2132099,-0.9566666,-0.48
 09432,-0.2497795,-1.3149982,-1.0049437,-0.0320729,-1.3490348,-1.035494
 1,-8.5061301,1.1052728,-1.0355504,1.7194129,-0.1807692,-0.3941645,3.04
 08465,-2.8584373,0.9318075,-1.0998478,0.234264,0.4495877,3.8390666,-0.
 8126209,-0.279528,-1.20722,1.0519909,1.4582805,0.0474551,1.759426,1.28
 80669,-1.4277654,-0.7824504,1.3180956,-0.3874163,0.607443,3.5374962,-0
 .3171653,-2.2791674,1.337067,-0.0440878,-0.709335,-3.1096781,1.1365064
 ,3.5445125,-4.617345,-3.2685762,2.6997736,-2.343686,0.4214724,-0.31153
 77,0.0228958,1.7690587,-2.5666047,3.8614989,-0.1223879,0.2022747,0.393
 3468,0.6785992,-0.3369783,0.064596,-0.9297972,1.580311,0.4155412\Hyper
 Polar=-22.4358505,-58.7500441,-31.7828001,-82.7863515,50.333614,45.731
 0214,-58.9804204,82.159901,-8.397662,-0.5560612\Quadrupole=7.1311385,-
 1.2308904,-5.9002481,0.0407977,1.3932279,5.6460998\PG=C01 [X(C8H9)]\NI
 mag=0\\0.75836923,0.04425828,0.60197520,0.02702864,0.21946497,0.334466
 44,-0.36475541,-0.03690334,-0.02563237,0.75532165,0.03204519,-0.135733
 29,-0.03162898,-0.05942911,0.48954102,0.02600161,-0.03635488,-0.107489
 60,-0.00097648,0.29285359,0.42792069,-0.04143543,-0.03079575,-0.029531
 25,-0.19196414,-0.06820817,-0.09729315,0.74031325,-0.07274301,0.015714
 03,0.00834406,0.01496346,-0.17128665,-0.08599047,-0.05924674,0.4417909
 7,-0.06406896,0.00918315,0.00863343,-0.03180197,-0.11402976,-0.2021728
 0,0.07869356,0.22935418,0.48371689,-0.13488621,0.05741323,0.03062231,-
 0.06713229,0.00623564,0.00241735,0.00501457,0.02183696,0.02344714,0.80
 878371,0.07673137,-0.20515815,-0.06216346,-0.00621969,0.01367486,-0.00
 674150,-0.00021383,0.00476360,0.00993213,0.10569532,0.61739576,0.01466
 435,-0.05497115,-0.11449683,0.02250752,0.00993233,0.02212726,-0.002753
 26,-0.01107056,-0.01603805,-0.10593040,0.10420425,0.24823716,-0.041296
 75,0.00674246,0.00894567,0.07105411,0.00122406,0.01566859,-0.15805241,
 -0.00067203,-0.02363756,0.01197442,0.00968582,-0.00909433,0.74855957,0
 .03717028,-0.00956812,-0.00598509,-0.04552770,-0.01845456,-0.03957464,
 0.06014128,-0.15375720,-0.06038451,-0.00559288,-0.00572006,0.00901452,
 -0.19585346,0.42200520,0.01381153,0.00015193,-0.00632445,-0.00960053,-
 0.02810414,-0.01851736,0.03901466,-0.09489828,-0.19310628,-0.00010231,
 -0.00249906,0.00817437,0.17676567,0.19332664,0.55229508,0.01478924,0.0
 2419020,0.00663704,-0.00460603,-0.00201512,-0.00254110,-0.00015983,0.0
 0055425,0.00440897,-0.11560185,-0.02215015,-0.00192562,-0.01583797,-0.
 00294674,-0.02974209,0.63417587,-0.01137035,-0.02659189,-0.00788230,0.
 00345097,0.00247921,0.00308876,-0.00300089,-0.00796159,-0.00044868,-0.
 03231222,-0.19689474,-0.01704594,0.00934807,0.01506039,0.02247833,-0.0
 7136261,0.54545904,-0.00330375,-0.01706813,-0.00010881,-0.00106525,-0.
 00117871,0.00303054,0.00292131,0.00190763,-0.00490485,0.00667777,-0.00
 614987,-0.08215548,-0.01022221,0.00273654,0.00206074,-0.06751425,-0.00
 165910,0.55222925,0.03096592,-0.00271425,-0.00648287,-0.03745041,-0.01
 228095,-0.01969119,-0.00907015,0.05373167,0.04902575,-0.01558257,-0.01
 429559,-0.00167094,-0.39976629,0.15042955,-0.05314989,-0.14992763,0.01
 501581,-0.05342864,0.68557126,-0.00854839,0.00130808,0.00158390,0.0087
 6085,0.00167593,0.00618010,0.03323508,-0.02355217,-0.01413224,-0.02537
 599,-0.00117621,-0.03341959,0.18986840,-0.20292688,-0.00992324,0.00871
 585,-0.09876974,-0.01335400,-0.26353671,0.51675239,0.01543910,-0.00233
 420,-0.00261320,-0.01460017,-0.00274165,-0.01108850,0.03466242,-0.0059
 9654,0.01829602,-0.01493748,-0.01150448,-0.00600850,-0.01938657,-0.025
 61123,-0.12949810,-0.06013281,-0.01021532,-0.16072522,0.05830157,0.191
 25882,0.54871050,-0.11370671,-0.09256916,-0.04738527,-0.01160564,-0.03
 118058,-0.01932690,-0.00631410,0.00049674,0.00110757,0.01107903,0.0228
 0104,0.01098326,0.00028809,-0.00007937,0.00011037,-0.00352687,0.002219
 55,0.00190432,-0.00054960,0.00004427,-0.00019436,0.12337215,-0.1008692
 4,-0.26321744,-0.11505677,0.00964512,0.00872938,-0.00281702,-0.0009496
 3,0.00009983,-0.00614323,-0.00415372,-0.01834789,-0.01540184,-0.002056
 55,0.00215921,0.00110128,0.00372002,0.00116749,-0.00194682,0.00119490,
 -0.00020131,0.00031507,0.09641458,0.27149966,-0.03961905,-0.11716770,-
 0.12900939,-0.00786411,-0.00911751,0.00991753,0.00190962,-0.00274944,0
 .00961773,-0.01457114,-0.01055377,0.00700072,0.00132281,-0.00162979,-0
 .00054496,0.00098281,-0.00291555,0.00042028,0.00022608,0.00020250,0.00
 050469,0.05416512,0.13472103,0.10790492,-0.02220039,0.02952286,0.02044
 017,-0.15657370,0.10988785,0.08497263,0.01287777,-0.01951879,-0.016163
 50,-0.00390355,-0.00328876,-0.00202767,-0.00197735,-0.00027060,-0.0028
 9190,0.00004716,-0.00011342,-0.00006283,-0.00069469,0.00015329,-0.0002
 6178,0.00057009,0.00026917,0.00023949,0.17102340,-0.00226706,0.0063615
 3,-0.00006737,0.10830280,-0.20623657,-0.12036559,0.01376588,-0.0114603
 6,-0.01211884,-0.00182741,0.00308502,-0.00481498,-0.00142179,0.0031490
 4,-0.00480119,-0.00021137,0.00067420,0.00002363,-0.00115682,0.00033536
 ,0.00017053,-0.00028087,-0.00068297,0.00419441,-0.11571933,0.20710583,
 -0.00771243,0.00289885,0.00789908,0.08685579,-0.11408800,-0.13768765,0
 .01015293,-0.02255072,-0.01275011,-0.00072010,-0.00296928,0.00529475,-
 0.00505633,-0.00310918,0.00373451,0.00012474,-0.00079483,-0.00003865,0
 .00080487,0.00005847,0.00011700,-0.00027106,0.00246430,-0.00339419,-0.
 08450172,0.13499026,0.14028981,0.00004972,-0.00034826,-0.00315958,-0.0
 1456335,0.00589983,-0.00315896,-0.36011002,0.06302162,-0.01391405,0.00
 078128,-0.00020258,-0.00001053,-0.00452685,0.00266715,-0.00418340,0.00
 015060,0.00007738,0.00009448,-0.00000212,0.00130523,0.00096965,-0.0005
 0440,-0.00031766,0.00079433,0.00121082,-0.00079172,0.00111911,0.377164
 30,0.00118859,0.00320562,-0.00690585,-0.02443220,0.00868435,-0.0142453
 4,0.06554107,-0.07802058,0.00424662,-0.00070839,-0.00123916,0.00087619
 ,0.03166547,0.00178802,-0.00459304,-0.00030164,0.00089019,-0.00015087,
 0.00050828,0.00060969,-0.00676682,-0.00020788,-0.00105001,0.00190313,-
 0.00157134,-0.00173672,0.00319476,-0.07052190,0.07023079,-0.00614069,-
 0.00801694,0.00149512,-0.02434187,0.00327651,0.01169369,-0.01519320,-0
 .00371554,-0.07669990,0.00165214,0.00104436,-0.00136048,0.01992527,-0.
 01030662,0.01026010,-0.00011721,-0.00053212,-0.00025586,0.00229012,-0.
 00621837,-0.00077263,-0.00145006,0.00040523,-0.00102412,0.00004460,0.0
 0296664,-0.00273425,0.02103768,0.01970414,0.06023385,-0.00219605,0.000
 42318,0.00050402,0.00114584,0.00423585,0.00040532,0.01161311,0.0046874
 9,0.01207465,0.00162698,0.00071689,0.00028576,-0.19612742,-0.03410891,
 -0.14738682,0.00008254,0.00597531,0.00023628,-0.01881921,-0.00676663,-
 0.02884254,0.00012430,-0.00027770,0.00023302,0.00035146,0.00065067,0.0
 0010712,0.00105516,-0.00125394,0.00153076,0.20347897,-0.00096672,0.000
 54996,0.00036686,0.00568914,0.00111996,-0.00280271,-0.01566952,-0.0081
 9658,-0.02708544,0.00069992,0.00043173,0.00058353,-0.04084705,-0.06565
 369,-0.05360902,0.00598774,0.00330391,-0.00489803,0.02058936,0.0072424
 0,0.01532950,-0.00002764,-0.00021721,0.00031608,-0.00052934,-0.0006358
 9,-0.00038663,-0.00053689,-0.00163093,0.00166290,0.02882082,0.06759544
 ,0.00230344,-0.00014346,-0.00030066,0.00081634,-0.00378789,-0.00036373
 ,-0.01791814,-0.00525127,-0.01424109,-0.00145612,-0.00079897,-0.000240
 33,-0.14482581,-0.05659689,-0.23659040,-0.00252331,-0.00433174,0.00447
 863,-0.00124767,-0.00159913,0.00521962,-0.00010263,0.00026137,-0.00026
 937,-0.00067947,-0.00074657,-0.00028328,0.00021126,0.00120108,-0.00013
 017,0.16111278,0.06737031,0.24305009,-0.00084887,-0.00001203,-0.000060
 33,0.00052837,0.00016660,0.00056253,-0.00209612,0.00586588,-0.00465637
 ,0.00030656,0.00101720,-0.00170801,-0.00242102,0.02854849,0.02129212,0
 .00759133,-0.01070738,-0.02178493,-0.08005471,0.04011269,0.04275187,0.
 00001690,-0.00017452,0.00033343,0.00003543,-0.00017643,0.00036026,-0.0
 0061580,-0.00047168,0.00162451,-0.00059094,-0.00258036,0.00280014,0.07
 991433,0.00032516,0.00003464,-0.00021036,-0.00040169,0.00001453,0.0006
 6247,0.00776579,0.00634689,-0.00448906,0.00211734,0.00038392,0.0013782
 9,0.00299359,-0.00038135,-0.02098555,0.00373136,0.00949032,-0.00428681
 ,0.04781203,-0.19606920,-0.14683179,-0.00008569,-0.00012120,0.00035026
 ,-0.00013424,-0.00035752,0.00040079,-0.00022438,-0.00225281,0.00045291
 ,-0.00248465,-0.00389719,0.00405300,-0.05909665,0.18738754,-0.00170436
 ,0.00023553,0.00053541,0.00192323,0.00089832,0.00056853,-0.00451949,-0
 .00535942,0.00250984,-0.00284208,0.00128300,-0.00298698,-0.00590103,0.
 00032390,0.01149855,0.00403445,-0.01939651,-0.00904860,0.04728261,-0.1
 5193702,-0.23631248,0.00003294,-0.00003342,-0.00013279,0.00015504,0.00
 029801,-0.00032775,0.00006809,0.00128382,-0.00059265,0.00158498,0.0036
 1022,-0.00135590,-0.03983617,0.16907355,0.23595405,-0.07488393,0.00700
 320,0.01822951,0.01668302,0.01143888,0.00948805,-0.00111943,-0.0093731
 9,-0.00875432,-0.48621153,-0.14069034,0.06278711,-0.00544333,0.0034901
 7,-0.00023333,-0.00810447,-0.00497391,-0.00087044,0.00320681,-0.001956
 82,0.00422710,0.00100722,-0.00277955,0.00148039,-0.00057021,0.00091263
 ,-0.00114550,-0.00016995,0.00028975,-0.00055834,-0.00033803,-0.0000129
 3,0.00033820,-0.00070102,-0.00068166,0.00039072,0.87030133,0.01372727,
 0.01593298,0.00056477,0.01982481,0.00292927,0.00478639,-0.00263600,-0.
 01257490,-0.01236506,-0.12121880,-0.17480672,-0.00878050,-0.00927405,0
 .00833597,0.00234067,-0.04050302,-0.01296972,0.00185411,0.00736253,-0.
 00722360,0.00558919,0.00197464,-0.00065587,0.00261745,0.00148525,0.000
 36567,-0.00007783,-0.00004207,0.00050478,-0.00069874,-0.00057647,-0.00
 005507,0.00051213,-0.00084558,-0.00003865,-0.00088281,0.08774805,0.699
 08439,0.02062698,0.00599019,0.00231085,0.00488012,-0.00313565,0.003865
 51,-0.00067081,-0.00393763,-0.00404673,0.06950772,-0.00310002,-0.09678
 295,-0.00361329,0.00379775,0.00246007,-0.00733645,-0.00392218,0.008647
 73,0.00360009,-0.00081612,0.00119674,0.00023898,0.00239427,-0.00160146
 ,0.00050115,0.00003295,0.00013503,0.00016892,0.00049349,-0.00045870,-0
 .00014024,-0.00008775,0.00014916,0.00012618,0.00006560,-0.00033974,-0.
 15789842,0.16399026,0.27814362,-0.00170235,-0.00061011,-0.00288106,0.0
 0190062,0.00096697,0.00165579,-0.00004037,-0.00143367,-0.00124966,-0.0
 0500869,-0.03646810,-0.00937947,-0.00096369,0.00080337,0.00011805,-0.0
 0300139,0.00070384,0.00420684,0.00084573,-0.00025067,0.00046026,-0.001
 00743,0.00057454,0.00078546,-0.00000446,-0.00001800,0.00003910,0.00002
 617,0.00012116,-0.00007591,-0.00007965,-0.00001394,0.00007279,-0.00014
 570,-0.00007760,-0.00003896,-0.09632302,-0.07669329,-0.01769207,0.0944
 7284,0.00216480,-0.00010028,0.00296417,0.00113598,0.00069497,0.0001166
 9,-0.00012356,-0.00106869,-0.00098711,-0.00051040,-0.00502242,-0.00502
 268,-0.00100149,0.00101556,0.00053003,-0.00164779,0.00150782,-0.004244
 48,0.00062632,-0.00135315,0.00055675,0.00011229,0.00126089,0.00005693,
 0.00001721,0.00010649,-0.00010779,0.00001615,0.00002599,-0.00002327,-0
 .00004206,-0.00000427,0.00002385,0.00001518,0.00014775,-0.00018232,-0.
 08536090,-0.33157871,-0.07856349,0.09239192,0.34479048,-0.00442346,0.0
 0412075,-0.00674181,-0.00014634,0.00007624,0.00206479,0.00009653,0.000
 67975,0.00062814,0.00788698,0.00290159,0.00906047,0.00116413,-0.001528
 51,-0.00131374,0.00456616,-0.00045187,0.01212709,-0.00122101,0.0029497
 2,-0.00086620,0.00000525,-0.00043280,0.00015370,-0.00016425,-0.0003076
 5,0.00024482,-0.00000884,0.00015223,-0.00009154,-0.00000544,0.00001293
 ,0.00002145,-0.00015061,-0.00050594,0.00055688,-0.02013369,-0.08188067
 ,-0.08044451,0.01693708,0.08985620,0.05947807,-0.00261742,-0.00423835,
 0.00267216,-0.00132627,0.00094523,-0.00086309,0.00004678,0.00089644,0.
 00115695,-0.01813576,0.02291726,0.01772693,0.00090658,-0.00056653,-0.0
 0022607,0.00029039,0.00172206,-0.00233488,-0.00056037,-0.00012829,-0.0
 0026850,0.00023929,0.00004894,0.00010771,-0.00029197,0.00015059,-0.000
 28676,-0.00003497,-0.00016033,0.00012059,0.00007915,-0.00001421,-0.000
 06714,-0.00000812,-0.00001205,-0.00003594,-0.21793819,0.12313625,0.088
 50538,0.01138304,-0.00794708,-0.00345288,0.22719564,-0.00446415,0.0005
 5519,-0.00385156,-0.00023200,0.00072489,0.00158240,0.00020813,0.000162
 88,0.00002581,-0.01185553,0.01226386,0.00270145,0.00036519,-0.00037678
 ,-0.00011526,0.00006610,0.00151981,0.00353525,-0.00028730,0.00055213,-
 0.00032353,-0.00038511,0.00020795,0.00008040,-0.00030152,-0.00019349,0
 .00014293,0.00001488,0.00009355,-0.00005532,0.00002563,0.00001056,-0.0
 0000679,-0.00005276,-0.00009960,0.00008868,0.13174240,-0.18441653,-0.0
 8131981,0.02135668,-0.01154241,-0.01368328,-0.13559328,0.18117586,0.00
 830115,-0.00557677,0.01020501,-0.00204373,-0.00049482,-0.00459627,-0.0
 0004146,0.00074435,0.00131470,-0.00222863,-0.00517890,0.01363346,0.000
 19182,0.00040906,0.00007682,-0.00281861,-0.00024064,-0.00767885,-0.000
 05769,-0.00095156,0.00057329,0.00022063,0.00036410,0.00040672,0.000319
 04,0.00057590,-0.00050592,-0.00003781,-0.00033665,0.00030649,0.0000048
 4,-0.00000524,-0.00004638,0.00004441,0.00024603,-0.00024997,0.09256974
 ,-0.07713857,-0.11300860,0.00748831,-0.00523167,0.00609844,-0.10284118
 ,0.09132551,0.09247756,-0.00141511,0.00162774,0.00020331,0.00199495,-0
 .00045118,0.00210552,0.00029821,-0.00140395,-0.00464463,-0.00494797,-0
 .00577356,0.00860722,-0.00420712,0.00226810,0.00040519,-0.10701491,-0.
 03782970,0.09766035,0.01338536,0.01017234,-0.02412475,0.00002889,-0.00
 008776,0.00003958,0.00005211,-0.00000982,0.00014277,0.00008046,0.00025
 816,-0.00028200,-0.00065255,-0.00121955,0.00117742,-0.00208419,-0.0014
 8587,-0.00060402,-0.00066820,-0.00214863,-0.00018061,-0.00055645,0.000
 09578,-0.00104053,0.00064673,-0.00026424,0.00090390,0.11799502,-0.0024
 9524,0.00113748,0.00166516,0.00098572,0.00094919,-0.00074645,0.0005073
 4,0.00013966,0.00040978,-0.01955903,-0.01985211,0.03026363,0.00069220,
 0.00095025,0.00002448,-0.03716565,-0.08491052,0.07754473,0.00175893,0.
 00087673,-0.00224234,-0.00036036,-0.00000229,0.00060405,0.00004293,0.0
 0005757,-0.00005898,-0.00006369,-0.00013083,0.00007069,0.00004069,-0.0
 0012463,0.00000545,-0.00081426,-0.00128664,0.00042517,0.00028238,-0.00
 473222,-0.00172465,-0.00143490,0.00068813,-0.00225741,0.00035750,-0.00
 049847,0.00119910,0.04777364,0.09782474,-0.00076603,0.00068348,0.00073
 506,0.00022902,0.00106331,0.00013961,0.00034144,0.00174464,0.00012334,
 -0.00380799,-0.00415648,0.00982440,0.00076107,-0.00303991,0.00040118,0
 .10262108,0.08122221,-0.24767985,0.00672537,0.00897715,-0.03150804,-0.
 00017182,-0.00002223,0.00018819,0.00003400,-0.00008411,0.00001516,-0.0
 0001027,-0.00011288,0.00012161,-0.00058781,-0.00098318,0.00091486,-0.0
 0212560,-0.00012168,-0.00140628,-0.00009391,-0.00106721,-0.00053557,-0
 .00039428,0.00024909,-0.00091405,0.00014903,-0.00021832,0.00047282,-0.
 10586111,-0.08585995,0.27400930,-0.00222948,-0.00298992,-0.00015008,0.
 00134865,0.00051900,0.00057349,0.00019830,-0.00166313,-0.00102357,0.01
 184387,-0.01026229,-0.00306193,-0.00216257,-0.00057221,-0.00400125,-0.
 24934616,0.13315749,0.04688583,-0.02149732,0.01419550,0.00593699,0.000
 48879,-0.00020095,-0.00056555,0.00004807,0.00009803,-0.00001280,0.0000
 0894,0.00005681,-0.00006638,-0.00075365,0.00063118,-0.00001206,0.00117
 356,-0.00006078,0.00000997,0.00127294,-0.00132087,-0.00062362,0.000204
 80,0.00005764,0.00009094,0.00012547,-0.00034314,0.00002527,-0.01293523
 ,0.00945182,0.00295780,0.27221101,-0.00388679,-0.00640554,-0.00120217,
 0.00038687,0.00049350,0.00036822,-0.00032047,-0.00113914,-0.00096773,0
 .02911598,-0.02378126,-0.00842696,-0.00145883,0.00237500,-0.00042457,0
 .13133856,-0.15345417,-0.03266509,-0.00475777,0.00191955,0.00134806,0.
 00111354,-0.00062820,-0.00091248,0.00006879,0.00006281,-0.00000710,0.0
 0004691,0.00002805,-0.00001649,-0.00006616,0.00016151,-0.00016448,-0.0
 0079442,0.00069858,0.00027129,0.00292183,0.00189893,-0.00015720,0.0000
 8179,0.00043184,0.00029874,-0.00151415,-0.00013939,0.00029077,-0.01152
 150,0.00891394,0.00172607,-0.14075417,0.16856398,-0.00043807,-0.001095
 61,0.00080435,0.00086081,0.00020680,0.00058775,0.00012829,-0.00125475,
 -0.00088028,0.00438485,-0.00354951,-0.00328300,-0.00300791,-0.00184204
 ,-0.00506615,0.05127619,-0.03695251,-0.07039809,-0.03130656,0.02114063
 ,0.00477500,0.00013366,-0.00017254,-0.00013822,0.00004700,0.00005397,-
 0.00000839,0.00001992,0.00005601,0.00000943,-0.00111667,0.00060567,-0.
 00001251,0.00042656,0.00074829,0.00112987,0.00017715,0.00063642,0.0003
 0954,-0.00005227,0.00000910,-0.00006200,-0.00006233,0.00009143,0.00052
 066,0.02549241,-0.01932246,-0.00490176,-0.04696304,0.04064110,0.076613
 80\\-0.00006765,0.00001612,-0.00000901,0.00005971,0.00001543,-0.000061
 68,0.00004450,0.00002216,0.00004475,-0.00000893,-0.00003409,0.00000580
 ,-0.00003682,-0.00003084,-0.00001385,0.00000541,0.00010186,-0.00008146
 ,-0.00003671,-0.00002129,0.00007887,-0.00001985,0.00001024,-0.00000206
 ,0.00002028,-0.00000207,0.00003398,-0.00000534,-0.00000678,-0.00000380
 ,0.00003561,0.00000541,-0.00002689,0.00000064,-0.00000234,-0.00001527,
 0.00004887,-0.00006977,0.00018157,-0.00003129,0.00002385,-0.00007004,-
 0.00002278,0.00002195,-0.00006581,-0.00001508,-0.00003176,0.00001131,0
 .00002944,-0.00001807,-0.00000641\\\@


 YOU CAN LEAD A BOY TO COLLEGE....
 BUT YOU CANNOT MAKE HIM THINK....
           ELBERT HUBBARD
 Job cpu time:       0 days  0 hours  0 minutes  4.8 seconds.
 Elapsed time:       0 days  0 hours  0 minutes  4.8 seconds.
 File lengths (MBytes):  RWF=     25 Int=      0 D2E=      0 Chk=      2 Scr=      1
 Normal termination of Gaussian 16 at Mon Jun  9 21:45:28 2025.
