 Entering Gaussian System, Link 0=g16
 Input=/home/gaussian/Documents/jeeva/Aromaticity/cycloheptatrienyl_anion/anion_isomer.com
 Output=/home/gaussian/Documents/jeeva/Aromaticity/cycloheptatrienyl_anion/anion_isomer.log
 Initial command:
 /usr/local/g16/l1.exe "/home/gaussian/tmp/Gau-97501.inp" -scrdir="/home/gaussian/tmp/"
 Entering Link 1 = /usr/local/g16/l1.exe PID=     97504.
  
 Copyright (c) 1988-2017, Gaussian, Inc.  All Rights Reserved.
  
 This is part of the Gaussian(R) 16 program.  It is based on
 the Gaussian(R) 09 system (copyright 2009, Gaussian, Inc.),
 the Gaussian(R) 03 system (copyright 2003, Gaussian, Inc.),
 the Gaussian(R) 98 system (copyright 1998, Gaussian, Inc.),
 the Gaussian(R) 94 system (copyright 1995, Gaussian, Inc.),
 the Gaussian 92(TM) system (copyright 1992, Gaussian, Inc.),
 the Gaussian 90(TM) system (copyright 1990, Gaussian, Inc.),
 the Gaussian 88(TM) system (copyright 1988, Gaussian, Inc.),
 the Gaussian 86(TM) system (copyright 1986, Carnegie Mellon
 University), and the Gaussian 82(TM) system (copyright 1983,
 Carnegie Mellon University). Gaussian is a federally registered
 trademark of Gaussian, Inc.
  
 This software contains proprietary and confidential information,
 including trade secrets, belonging to Gaussian, Inc.
  
 This software is provided under written license and may be
 used, copied, transmitted, or stored only in accord with that
 written license.
  
 The following legend is applicable only to US Government
 contracts under FAR:
  
                    RESTRICTED RIGHTS LEGEND
  
 Use, reproduction and disclosure by the US Government is
 subject to restrictions as set forth in subparagraphs (a)
 and (c) of the Commercial Computer Software - Restricted
 Rights clause in FAR 52.227-19.
  
 Gaussian, Inc.
 340 Quinnipiac St., Bldg. 40, Wallingford CT 06492
  
  
 ---------------------------------------------------------------
 Warning -- This program may not be used in any manner that
 competes with the business of Gaussian, Inc. or will provide
 assistance to any competitor of Gaussian, Inc.  The licensee
 of this program is prohibited from giving any competitor of
 Gaussian, Inc. access to this program.  By using this program,
 the user acknowledges that Gaussian, Inc. is engaged in the
 business of creating and licensing software in the field of
 computational chemistry and represents and warrants to the
 licensee that it is not a competitor of Gaussian, Inc. and that
 it will not use this program in any manner prohibited above.
 ---------------------------------------------------------------
  

 Cite this work as:
 Gaussian 16, Revision B.01,
 M. J. Frisch, G. W. Trucks, H. B. Schlegel, G. E. Scuseria, 
 M. A. Robb, J. R. Cheeseman, G. Scalmani, V. Barone, 
 G. A. Petersson, H. Nakatsuji, X. Li, M. Caricato, A. V. Marenich, 
 J. Bloino, B. G. Janesko, R. Gomperts, B. Mennucci, H. P. Hratchian, 
 J. V. Ortiz, A. F. Izmaylov, J. L. Sonnenberg, D. Williams-Young, 
 F. Ding, F. Lipparini, F. Egidi, J. Goings, B. Peng, A. Petrone, 
 T. Henderson, D. Ranasinghe, V. G. Zakrzewski, J. Gao, N. Rega, 
 G. Zheng, W. Liang, M. Hada, M. Ehara, K. Toyota, R. Fukuda, 
 J. Hasegawa, M. Ishida, T. Nakajima, Y. Honda, O. Kitao, H. Nakai, 
 T. Vreven, K. Throssell, J. A. Montgomery, Jr., J. E. Peralta, 
 F. Ogliaro, M. J. Bearpark, J. J. Heyd, E. N. Brothers, K. N. Kudin, 
 V. N. Staroverov, T. A. Keith, R. Kobayashi, J. Normand, 
 K. Raghavachari, A. P. Rendell, J. C. Burant, S. S. Iyengar, 
 J. Tomasi, M. Cossi, J. M. Millam, M. Klene, C. Adamo, R. Cammi, 
 J. W. Ochterski, R. L. Martin, K. Morokuma, O. Farkas, 
 J. B. Foresman, and D. J. Fox, Gaussian, Inc., Wallingford CT, 2016.
 
 ******************************************
 Gaussian 16:  EM64L-G16RevB.01 20-Dec-2017
                 9-Jun-2025 
 ******************************************
 %chk=anion_isomer.chk
 -------------------------------------
 # opt freq hf/3-21g geom=connectivity
 -------------------------------------
 1/18=20,19=15,38=1,57=2/1,3;
 2/9=110,12=2,17=6,18=5,40=1/2;
 3/5=5,11=9,25=1,30=1,71=1/1,2,3;
 4//1;
 5/5=2,38=5/2;
 6/7=2,8=2,9=2,10=2,28=1/1;
 7//1,2,3,16;
 1/18=20,19=15/3(2);
 2/9=110/2;
 99//99;
 2/9=110/2;
 3/5=5,11=9,25=1,30=1,71=1/1,2,3;
 4/5=5,16=3,69=1/1;
 5/5=2,38=5/2;
 7//1,2,3,16;
 1/18=20,19=15/3(-5);
 2/9=110/2;
 6/7=2,8=2,9=2,10=2,19=2,28=1/1;
 99/9=1/99;
 ------------
 Optimisation
 ------------
 Symbolic Z-matrix:
 Charge = -1 Multiplicity = 1
 C                    -1.88545   2.95749   1.60579 
 C                    -0.49434   2.98518   1.75653 
 C                     0.37416   4.05948   2.1892 
 C                    -2.7737    4.0483    1.73201 
 C                    -0.0032    5.30879   2.60246 
 C                    -2.27999   5.48008   1.66177 
 C                    -1.4548    5.62468   2.88504 
 H                    -2.32378   2.00579   1.38893 
 H                     0.0042    2.06832   1.52048 
 H                     1.42517   3.85951   2.17207 
 H                     0.73524   6.07639   2.70439 
 H                    -1.84191   5.88749   3.84732 
 C                    -4.09066   3.80898   1.94394 
 H                    -4.7726    4.62659   2.05062 
 H                    -4.44853   2.80243   2.00459 
 H                    -1.6541    5.63208   0.80733 
 H                    -3.09878   6.16719   1.61311 
 

 GradGradGradGradGradGradGradGradGradGradGradGradGradGradGradGradGradGrad
 Berny optimization.
 Initialization pass.
                           ----------------------------
                           !    Initial Parameters    !
                           ! (Angstroms and Degrees)  !
 --------------------------                            --------------------------
 ! Name  Definition              Value          Derivative Info.                !
 --------------------------------------------------------------------------------
 ! R1    R(1,2)                  1.3995         estimate D2E/DX2                !
 ! R2    R(1,4)                  1.4124         estimate D2E/DX2                !
 ! R3    R(1,8)                  1.07           estimate D2E/DX2                !
 ! R4    R(2,3)                  1.4476         estimate D2E/DX2                !
 ! R5    R(2,9)                  1.07           estimate D2E/DX2                !
 ! R6    R(3,5)                  1.3689         estimate D2E/DX2                !
 ! R7    R(3,10)                 1.07           estimate D2E/DX2                !
 ! R8    R(4,6)                  1.5161         estimate D2E/DX2                !
 ! R9    R(4,13)                 1.3552         estimate D2E/DX2                !
 ! R10   R(5,7)                  1.5122         estimate D2E/DX2                !
 ! R11   R(5,11)                 1.07           estimate D2E/DX2                !
 ! R12   R(6,7)                  1.4826         estimate D2E/DX2                !
 ! R13   R(6,16)                 1.07           estimate D2E/DX2                !
 ! R14   R(6,17)                 1.07           estimate D2E/DX2                !
 ! R15   R(7,12)                 1.07           estimate D2E/DX2                !
 ! R16   R(13,14)                1.07           estimate D2E/DX2                !
 ! R17   R(13,15)                1.07           estimate D2E/DX2                !
 ! A1    A(2,1,4)              126.8854         estimate D2E/DX2                !
 ! A2    A(2,1,8)              116.5275         estimate D2E/DX2                !
 ! A3    A(4,1,8)              116.5776         estimate D2E/DX2                !
 ! A4    A(1,2,3)              130.0324         estimate D2E/DX2                !
 ! A5    A(1,2,9)              114.9864         estimate D2E/DX2                !
 ! A6    A(3,2,9)              114.9802         estimate D2E/DX2                !
 ! A7    A(2,3,5)              127.0211         estimate D2E/DX2                !
 ! A8    A(2,3,10)             116.4761         estimate D2E/DX2                !
 ! A9    A(5,3,10)             116.4978         estimate D2E/DX2                !
 ! A10   A(1,4,6)              121.36           estimate D2E/DX2                !
 ! A11   A(1,4,13)             119.2587         estimate D2E/DX2                !
 ! A12   A(6,4,13)             119.3709         estimate D2E/DX2                !
 ! A13   A(3,5,7)              120.7748         estimate D2E/DX2                !
 ! A14   A(3,5,11)             119.5517         estimate D2E/DX2                !
 ! A15   A(7,5,11)             119.6579         estimate D2E/DX2                !
 ! A16   A(4,6,7)              103.5983         estimate D2E/DX2                !
 ! A17   A(4,6,16)             111.2004         estimate D2E/DX2                !
 ! A18   A(4,6,17)             111.0598         estimate D2E/DX2                !
 ! A19   A(7,6,16)             108.6285         estimate D2E/DX2                !
 ! A20   A(7,6,17)             113.6275         estimate D2E/DX2                !
 ! A21   A(16,6,17)            108.6676         estimate D2E/DX2                !
 ! A22   A(5,7,6)              111.0824         estimate D2E/DX2                !
 ! A23   A(5,7,12)             124.516          estimate D2E/DX2                !
 ! A24   A(6,7,12)             124.3747         estimate D2E/DX2                !
 ! A25   A(4,13,14)            120.0            estimate D2E/DX2                !
 ! A26   A(4,13,15)            120.0            estimate D2E/DX2                !
 ! A27   A(14,13,15)           120.0            estimate D2E/DX2                !
 ! D1    D(4,1,2,3)              6.387          estimate D2E/DX2                !
 ! D2    D(4,1,2,9)           -173.9925         estimate D2E/DX2                !
 ! D3    D(8,1,2,3)           -172.4521         estimate D2E/DX2                !
 ! D4    D(8,1,2,9)              7.1683         estimate D2E/DX2                !
 ! D5    D(2,1,4,6)             17.9519         estimate D2E/DX2                !
 ! D6    D(2,1,4,13)          -160.8623         estimate D2E/DX2                !
 ! D7    D(8,1,4,6)           -163.2095         estimate D2E/DX2                !
 ! D8    D(8,1,4,13)            17.9764         estimate D2E/DX2                !
 ! D9    D(1,2,3,5)              2.5648         estimate D2E/DX2                !
 ! D10   D(1,2,3,10)          -176.5808         estimate D2E/DX2                !
 ! D11   D(9,2,3,5)           -177.0557         estimate D2E/DX2                !
 ! D12   D(9,2,3,10)             3.7987         estimate D2E/DX2                !
 ! D13   D(2,3,5,7)             11.1174         estimate D2E/DX2                !
 ! D14   D(2,3,5,11)          -167.4415         estimate D2E/DX2                !
 ! D15   D(10,3,5,7)          -169.7371         estimate D2E/DX2                !
 ! D16   D(10,3,5,11)           11.7039         estimate D2E/DX2                !
 ! D17   D(1,4,6,7)            -67.0726         estimate D2E/DX2                !
 ! D18   D(1,4,6,16)            49.4356         estimate D2E/DX2                !
 ! D19   D(1,4,6,17)           170.5831         estimate D2E/DX2                !
 ! D20   D(13,4,6,7)           111.7402         estimate D2E/DX2                !
 ! D21   D(13,4,6,16)         -131.7515         estimate D2E/DX2                !
 ! D22   D(13,4,6,17)          -10.604          estimate D2E/DX2                !
 ! D23   D(1,4,13,14)          179.419          estimate D2E/DX2                !
 ! D24   D(1,4,13,15)           -0.581          estimate D2E/DX2                !
 ! D25   D(6,4,13,14)            0.581          estimate D2E/DX2                !
 ! D26   D(6,4,13,15)         -179.419          estimate D2E/DX2                !
 ! D27   D(3,5,7,6)            -62.6181         estimate D2E/DX2                !
 ! D28   D(3,5,7,12)           115.5607         estimate D2E/DX2                !
 ! D29   D(11,5,7,6)           115.9393         estimate D2E/DX2                !
 ! D30   D(11,5,7,12)          -65.8819         estimate D2E/DX2                !
 ! D31   D(4,6,7,5)             92.4904         estimate D2E/DX2                !
 ! D32   D(4,6,7,12)           -85.6915         estimate D2E/DX2                !
 ! D33   D(16,6,7,5)           -25.815          estimate D2E/DX2                !
 ! D34   D(16,6,7,12)          156.0031         estimate D2E/DX2                !
 ! D35   D(17,6,7,5)          -146.8889         estimate D2E/DX2                !
 ! D36   D(17,6,7,12)           34.9292         estimate D2E/DX2                !
 --------------------------------------------------------------------------------
 Trust Radius=3.00D-01 FncErr=1.00D-07 GrdErr=1.00D-07 EigMax=2.50D+02 EigMin=1.00D-04
 Number of steps in this run=     90 maximum allowed number of steps=    102.
 GradGradGradGradGradGradGradGradGradGradGradGradGradGradGradGradGradGrad

                          Input orientation:                          
 ---------------------------------------------------------------------
 Center     Atomic      Atomic             Coordinates (Angstroms)
 Number     Number       Type             X           Y           Z
 ---------------------------------------------------------------------
      1          6           0       -1.885449    2.957486    1.605792
      2          6           0       -0.494340    2.985183    1.756532
      3          6           0        0.374161    4.059481    2.189197
      4          6           0       -2.773704    4.048297    1.732010
      5          6           0       -0.003205    5.308792    2.602460
      6          6           0       -2.279985    5.480081    1.661767
      7          6           0       -1.454804    5.624676    2.885037
      8          1           0       -2.323785    2.005786    1.388930
      9          1           0        0.004200    2.068319    1.520484
     10          1           0        1.425169    3.859509    2.172068
     11          1           0        0.735241    6.076391    2.704389
     12          1           0       -1.841906    5.887488    3.847316
     13          6           0       -4.090663    3.808983    1.943938
     14          1           0       -4.772604    4.626587    2.050619
     15          1           0       -4.448530    2.802428    2.004586
     16          1           0       -1.654096    5.632083    0.807333
     17          1           0       -3.098776    6.167186    1.613109
 ---------------------------------------------------------------------
                    Distance matrix (angstroms):
                    1          2          3          4          5
     1  C    0.000000
     2  C    1.399527   0.000000
     3  C    2.580812   1.447621   0.000000
     4  C    1.412373   2.515216   3.180911   0.000000
     5  C    3.172512   2.521103   1.368930   3.165785   0.000000
     6  C    2.553875   3.069532   3.056269   1.516145   2.469407
     7  C    2.989286   3.027034   2.505822   2.356679   1.512208
     8  H    1.070000   2.107420   3.483820   2.119430   4.215162
     9  H    2.090136   1.070000   2.132785   3.417865   3.416341
    10  H    3.477716   2.149798   1.070000   4.226088   2.079882
    11  H    4.219301   3.459171   2.112754   4.167898   1.070000
    12  H    3.689342   3.822393   3.316915   2.953877   2.294641
    13  C    2.387961   3.694226   4.478566   1.355200   4.403452
    14  H    3.364436   4.591757   5.179768   2.105120   4.849443
    15  H    2.598550   3.966175   4.987244   2.105120   5.138115
    16  H    2.800809   3.041725   2.914868   2.148703   2.460171
    17  H    3.431384   4.114463   4.103120   2.146975   3.361282
                    6          7          8          9         10
     6  C    0.000000
     7  C    1.482639   0.000000
     8  H    3.485267   4.011213   0.000000
     9  H    4.108233   4.079016   2.332537   0.000000
    10  H    4.076129   3.452301   4.254909   2.377410   0.000000
    11  H    3.245648   2.243429   5.259077   4.242722   2.382001
    12  H    2.265947   1.070000   4.619901   4.838213   4.194393
    13  C    2.480069   3.336190   2.584843   4.469577   5.520779
    14  H    2.663232   3.563738   3.647348   5.444596   6.246242
    15  H    3.462649   4.207455   2.351215   4.538730   5.970411
    16  H    1.070000   2.087253   3.733198   3.994864   3.806100
    17  H    1.070000   2.148200   4.238882   5.141765   5.109196
                   11         12         13         14         15
    11  H    0.000000
    12  H    2.825536   0.000000
    13  C    5.385979   3.605543   0.000000
    14  H    5.732861   3.661554   1.070000   0.000000
    15  H    6.170902   4.439340   1.070000   1.853294   0.000000
    16  H    3.083044   3.056469   3.248450   3.504550   4.153218
    17  H    3.987333   2.578688   2.579614   2.316583   3.646462
                   16         17
    16  H    0.000000
    17  H    1.738595   0.000000
 Stoichiometry    C8H9(1-)
 Framework group  C1[X(C8H9)]
 Deg. of freedom    45
 Full point group                 C1      NOp   1
 Largest Abelian subgroup         C1      NOp   1
 Largest concise Abelian subgroup C1      NOp   1
                         Standard orientation:                         
 ---------------------------------------------------------------------
 Center     Atomic      Atomic             Coordinates (Angstroms)
 Number     Number       Type             X           Y           Z
 ---------------------------------------------------------------------
      1          6           0       -0.519104    1.335202    0.038754
      2          6           0        0.869597    1.508749    0.030553
      3          6           0        1.930610    0.525224   -0.019812
      4          6           0       -1.220076    0.112008    0.123799
      5          6           0        1.791490   -0.832860   -0.120913
      6          6           0       -0.543640   -1.152469    0.615965
      7          6           0        0.449734   -1.451333   -0.443331
      8          1           0       -1.112030    2.221890   -0.045640
      9          1           0        1.198064    2.526637    0.060780
     10          1           0        2.931195    0.899384    0.041293
     11          1           0        2.637544   -1.464419    0.052946
     12          1           0        0.235627   -2.005287   -1.333384
     13          6           0       -2.517333    0.063577   -0.265232
     14          1           0       -3.056977   -0.858984   -0.214579
     15          1           0       -3.001941    0.947900   -0.623044
     16          1           0       -0.022492   -0.980141    1.534447
     17          1           0       -1.256664   -1.935562    0.768482
 ---------------------------------------------------------------------
 Rotational constants (GHZ):           3.6119583           2.0437211           1.4018032
 Standard basis: 3-21G (6D, 7F)
 There are    90 symmetry adapted cartesian basis functions of A   symmetry.
 There are    90 symmetry adapted basis functions of A   symmetry.
    90 basis functions,   147 primitive gaussians,    90 cartesian basis functions
    29 alpha electrons       29 beta electrons
       nuclear repulsion energy       335.0373620757 Hartrees.
 NAtoms=   17 NActive=   17 NUniq=   17 SFac= 1.00D+00 NAtFMM=   60 NAOKFM=F Big=F
 Integral buffers will be    131072 words long.
 Raffenetti 1 integral format.
 Two-electron integral symmetry is turned on.
 One-electron integrals computed using PRISM.
 NBasis=    90 RedAO= T EigKep=  3.84D-03  NBF=    90
 NBsUse=    90 1.00D-06 EigRej= -1.00D+00 NBFU=    90
 ExpMin= 1.83D-01 ExpMax= 1.72D+02 ExpMxC= 1.72D+02 IAcc=3 IRadAn=         5 AccDes= 0.00D+00
 Harris functional with IExCor=  205 and IRadAn=       5 diagonalized for initial guess.
 HarFok:  IExCor=  205 AccDes= 0.00D+00 IRadAn=         5 IDoV= 1 UseB2=F ITyADJ=14
 ICtDFT=  3500011 ScaDFX=  1.000000  1.000000  1.000000  1.000000
 FoFCou: FMM=F IPFlag=           0 FMFlag=      100000 FMFlg1=           0
         NFxFlg=           0 DoJE=T BraDBF=F KetDBF=T FulRan=T
         wScrn=  0.000000 ICntrl=       500 IOpCl=  0 I1Cent=   200000004 NGrid=           0
         NMat0=    1 NMatS0=      1 NMatT0=    0 NMatD0=    1 NMtDS0=    0 NMtDT0=    0
 Petite list used in FoFCou.
 Keep R1 ints in memory in canonical form, NReq=9231921.
 Requested convergence on RMS density matrix=1.00D-08 within 128 cycles.
 Requested convergence on MAX density matrix=1.00D-06.
 Requested convergence on             energy=1.00D-06.
 No special actions if energy rises.
 SCF Done:  E(RHF) =  -306.285610253     A.U. after   16 cycles
            NFock= 16  Conv=0.65D-08     -V/T= 2.0013

 **********************************************************************

            Population analysis using the SCF Density.

 **********************************************************************

 Orbital symmetries:
       Occupied  (A) (A) (A) (A) (A) (A) (A) (A) (A) (A) (A) (A)
                 (A) (A) (A) (A) (A) (A) (A) (A) (A) (A) (A) (A)
                 (A) (A) (A) (A) (A)
       Virtual   (A) (A) (A) (A) (A) (A) (A) (A) (A) (A) (A) (A)
                 (A) (A) (A) (A) (A) (A) (A) (A) (A) (A) (A) (A)
                 (A) (A) (A) (A) (A) (A) (A) (A) (A) (A) (A) (A)
                 (A) (A) (A) (A) (A) (A) (A) (A) (A) (A) (A) (A)
                 (A) (A) (A) (A) (A) (A) (A) (A) (A) (A) (A) (A)
                 (A)
 The electronic state is 1-A.
 Alpha  occ. eigenvalues --  -11.00120 -10.99458 -10.99068 -10.98113 -10.97051
 Alpha  occ. eigenvalues --  -10.96910 -10.94139 -10.91445  -0.93504  -0.86240
 Alpha  occ. eigenvalues --   -0.82732  -0.75083  -0.67754  -0.61790  -0.54278
 Alpha  occ. eigenvalues --   -0.49585  -0.48415  -0.44602  -0.40886  -0.38913
 Alpha  occ. eigenvalues --   -0.36446  -0.33436  -0.32829  -0.30027  -0.28061
 Alpha  occ. eigenvalues --   -0.26351  -0.17477  -0.09957  -0.00279
 Alpha virt. eigenvalues --    0.28587   0.38655   0.43518   0.46875   0.47387
 Alpha virt. eigenvalues --    0.50224   0.50981   0.51964   0.53123   0.54237
 Alpha virt. eigenvalues --    0.55293   0.57448   0.63829   0.67304   0.69222
 Alpha virt. eigenvalues --    0.71208   0.77096   0.78607   0.87638   0.90512
 Alpha virt. eigenvalues --    1.05656   1.11681   1.14965   1.15693   1.17750
 Alpha virt. eigenvalues --    1.18578   1.23046   1.24202   1.25781   1.26888
 Alpha virt. eigenvalues --    1.28196   1.29136   1.30222   1.31776   1.33020
 Alpha virt. eigenvalues --    1.36434   1.41747   1.45134   1.48262   1.50301
 Alpha virt. eigenvalues --    1.50667   1.52561   1.54902   1.58267   1.61183
 Alpha virt. eigenvalues --    1.64298   1.65097   1.66184   1.76524   1.80981
 Alpha virt. eigenvalues --    1.84320   1.88073   1.90825   1.95174   2.02116
 Alpha virt. eigenvalues --    2.10124   2.16347   2.25010   2.45321   2.57850
 Alpha virt. eigenvalues --    2.84891
          Condensed to atoms (all electrons):
               1          2          3          4          5          6
     1  C    5.225480   0.532559  -0.072358   0.376143  -0.001611  -0.063182
     2  C    0.532559   5.123511   0.412202  -0.086601  -0.077147   0.000512
     3  C   -0.072358   0.412202   5.386010   0.001253   0.446253   0.000871
     4  C    0.376143  -0.086601   0.001253   5.397910   0.017296   0.214622
     5  C   -0.001611  -0.077147   0.446253   0.017296   5.204983  -0.141865
     6  C   -0.063182   0.000512   0.000871   0.214622  -0.141865   5.391110
     7  C    0.005141  -0.004428  -0.138305  -0.163112   0.461243   0.334056
     8  H    0.409461  -0.044452   0.002226  -0.049265  -0.000052   0.002148
     9  H   -0.051965   0.395128  -0.047814   0.003111   0.002724  -0.000036
    10  H    0.002349  -0.048103   0.385022  -0.000101  -0.045833  -0.000081
    11  H   -0.000053   0.002909  -0.079540  -0.000361   0.389246   0.003063
    12  H    0.000347   0.000043   0.002032   0.002702  -0.032885  -0.041215
    13  C   -0.106588   0.001839   0.000142   0.525545   0.000119  -0.060571
    14  H    0.003357  -0.000083   0.000001  -0.059083  -0.000005  -0.003294
    15  H    0.000502   0.000154   0.000002  -0.066604   0.000004   0.002791
    16  H   -0.003252   0.002565   0.001341  -0.070217  -0.016186   0.415658
    17  H    0.002550   0.000015  -0.000052  -0.065066   0.002450   0.400607
               7          8          9         10         11         12
     1  C    0.005141   0.409461  -0.051965   0.002349  -0.000053   0.000347
     2  C   -0.004428  -0.044452   0.395128  -0.048103   0.002909   0.000043
     3  C   -0.138305   0.002226  -0.047814   0.385022  -0.079540   0.002032
     4  C   -0.163112  -0.049265   0.003111  -0.000101  -0.000361   0.002702
     5  C    0.461243  -0.000052   0.002724  -0.045833   0.389246  -0.032885
     6  C    0.334056   0.002148  -0.000036  -0.000081   0.003063  -0.041215
     7  C    5.635006   0.000289   0.000331   0.004345  -0.040685   0.410343
     8  H    0.000289   0.516476  -0.002365  -0.000042   0.000001   0.000003
     9  H    0.000331  -0.002365   0.551538  -0.000669  -0.000045   0.000001
    10  H    0.004345  -0.000042  -0.000669   0.566864   0.000536  -0.000063
    11  H   -0.040685   0.000001  -0.000045   0.000536   0.584123  -0.000294
    12  H    0.410343   0.000003   0.000001  -0.000063  -0.000294   0.529546
    13  C   -0.008478  -0.000793  -0.000077  -0.000001  -0.000001   0.000284
    14  H    0.000611   0.000066   0.000001   0.000000   0.000000   0.000024
    15  H   -0.000261   0.002263  -0.000004  -0.000000  -0.000000   0.000005
    16  H   -0.053409   0.000053   0.000012   0.000053   0.001369   0.002025
    17  H   -0.040982  -0.000044   0.000002   0.000004   0.000011  -0.002288
              13         14         15         16         17
     1  C   -0.106588   0.003357   0.000502  -0.003252   0.002550
     2  C    0.001839  -0.000083   0.000154   0.002565   0.000015
     3  C    0.000142   0.000001   0.000002   0.001341  -0.000052
     4  C    0.525545  -0.059083  -0.066604  -0.070217  -0.065066
     5  C    0.000119  -0.000005   0.000004  -0.016186   0.002450
     6  C   -0.060571  -0.003294   0.002791   0.415658   0.400607
     7  C   -0.008478   0.000611  -0.000261  -0.053409  -0.040982
     8  H   -0.000793   0.000066   0.002263   0.000053  -0.000044
     9  H   -0.000077   0.000001  -0.000004   0.000012   0.000002
    10  H   -0.000001   0.000000  -0.000000   0.000053   0.000004
    11  H   -0.000001   0.000000  -0.000000   0.001369   0.000011
    12  H    0.000284   0.000024   0.000005   0.002025  -0.002288
    13  C    5.342928   0.404674   0.408180   0.002489  -0.001393
    14  H    0.404674   0.550541  -0.028036   0.000125   0.003134
    15  H    0.408180  -0.028036   0.559680  -0.000084   0.000061
    16  H    0.002489   0.000125  -0.000084   0.550022  -0.023313
    17  H   -0.001393   0.003134   0.000061  -0.023313   0.562453
 Mulliken charges:
               1
     1  C   -0.258883
     2  C   -0.210625
     3  C   -0.299287
     4  C    0.021828
     5  C   -0.208736
     6  C   -0.455195
     7  C   -0.401706
     8  H    0.164028
     9  H    0.150128
    10  H    0.135721
    11  H    0.139721
    12  H    0.129391
    13  C   -0.508298
    14  H    0.127967
    15  H    0.121347
    16  H    0.190749
    17  H    0.161850
 Sum of Mulliken charges =  -1.00000
 Mulliken charges with hydrogens summed into heavy atoms:
               1
     1  C   -0.094855
     2  C   -0.060498
     3  C   -0.163566
     4  C    0.021828
     5  C   -0.069015
     6  C   -0.102595
     7  C   -0.272315
    13  C   -0.258984
 Electronic spatial extent (au):  <R**2>=            922.6652
 Charge=             -1.0000 electrons
 Dipole moment (field-independent basis, Debye):
    X=              0.6628    Y=              1.1730    Z=              1.0636  Tot=              1.7165
 Quadrupole moment (field-independent basis, Debye-Ang):
   XX=            -65.6046   YY=            -57.8103   ZZ=            -57.6015
   XY=              1.2571   XZ=              0.7840   YZ=             -0.8778
 Traceless Quadrupole moment (field-independent basis, Debye-Ang):
   XX=             -5.2658   YY=              2.5285   ZZ=              2.7373
   XY=              1.2571   XZ=              0.7840   YZ=             -0.8778
 Octapole moment (field-independent basis, Debye-Ang**2):
  XXX=             17.6437  YYY=             13.2181  ZZZ=              2.6766  XYY=             -5.1183
  XXY=             -1.0204  XXZ=              1.5165  XZZ=              0.6291  YZZ=             -2.7091
  YYZ=             -0.2922  XYZ=              0.4468
 Hexadecapole moment (field-independent basis, Debye-Ang**3):
 XXXX=           -865.2008 YYYY=           -473.7819 ZZZZ=           -108.8854 XXXY=              3.3397
 XXXZ=              6.9961 YYYX=              9.5869 YYYZ=             -1.6617 ZZZX=             -0.5388
 ZZZY=             -0.4425 XXYY=           -201.9715 XXZZ=           -167.1715 YYZZ=            -97.4424
 XXYZ=             -4.4951 YYXZ=              2.1914 ZZXY=             -0.9640
 N-N= 3.350373620757D+02 E-N=-1.393832886170D+03  KE= 3.058859585083D+02
 Calling FoFJK, ICntrl=      2127 FMM=F ISym2X=0 I1Cent= 0 IOpClX= 0 NMat=1 NMatS=1 NMatT=0.
 ***** Axes restored to original set *****
 -------------------------------------------------------------------
 Center     Atomic                   Forces (Hartrees/Bohr)
 Number     Number              X              Y              Z
 -------------------------------------------------------------------
      1        6           0.076412317   -0.000688543    0.006256475
      2        6          -0.034868505    0.012756544    0.005459745
      3        6          -0.007421681    0.006366118   -0.024744728
      4        6          -0.053054617    0.008276393   -0.005189560
      5        6          -0.069474540   -0.009989841    0.031755093
      6        6           0.000298140   -0.028844850    0.015655713
      7        6           0.071274848    0.008059991   -0.024702121
      8        1          -0.002055284   -0.003705537   -0.002996734
      9        1           0.004139821   -0.006809955    0.001742096
     10        1           0.007957559   -0.001951567   -0.011906594
     11        1           0.015454048   -0.003065788    0.025177400
     12        1           0.003399553    0.013356994   -0.002279914
     13        6           0.012993536    0.005239408   -0.006605396
     14        1          -0.007176005   -0.000758804   -0.002588139
     15        1          -0.006608399   -0.002501112    0.007409682
     16        1           0.001418867   -0.000190312   -0.011252266
     17        1          -0.012689659    0.004450862   -0.001190749
 -------------------------------------------------------------------
 Cartesian Forces:  Max     0.076412317 RMS     0.022477188

 GradGradGradGradGradGradGradGradGradGradGradGradGradGradGradGradGradGrad
 Berny optimization.
 FormGI is forming the generalized inverse of G from B-inverse, IUseBI=4.
 Internal  Forces:  Max     0.051988100 RMS     0.011789258
 Search for a local minimum.
 Step number   1 out of a maximum of   90
 All quantities printed in internal units (Hartrees-Bohrs-Radians)
 Mixed Optimization -- RFO/linear search
 Second derivative matrix not updated -- first step.
 ITU=  0
     Eigenvalues ---    0.00827   0.01088   0.01407   0.01712   0.01732
     Eigenvalues ---    0.01845   0.01888   0.02012   0.02127   0.02681
     Eigenvalues ---    0.02681   0.02839   0.06216   0.08019   0.08661
     Eigenvalues ---    0.09764   0.15376   0.15989   0.15997   0.15999
     Eigenvalues ---    0.16000   0.16000   0.16000   0.16008   0.17731
     Eigenvalues ---    0.22000   0.22670   0.24995   0.29974   0.30576
     Eigenvalues ---    0.32724   0.37230   0.37230   0.37230   0.37230
     Eigenvalues ---    0.37230   0.37230   0.37230   0.37230   0.37230
     Eigenvalues ---    0.37733   0.42343   0.44783   0.50055   0.53930
 RFO step:  Lambda=-5.48023114D-02 EMin= 8.26504225D-03
 Linear search not attempted -- first point.
 Maximum step size (   0.300) exceeded in Quadratic search.
    -- Step size scaled by   0.986
 Iteration  1 RMS(Cart)=  0.08634785 RMS(Int)=  0.00858952
 Iteration  2 RMS(Cart)=  0.01096280 RMS(Int)=  0.00252777
 Iteration  3 RMS(Cart)=  0.00011004 RMS(Int)=  0.00252641
 Iteration  4 RMS(Cart)=  0.00000021 RMS(Int)=  0.00252641
 Variable       Old X    -DE/DX   Delta X   Delta X   Delta X     New X
                                 (Linear)    (Quad)   (Total)
    R1        2.64472  -0.03663   0.00000  -0.07551  -0.07282   2.57190
    R2        2.66900   0.03044   0.00000   0.05684   0.05901   2.72801
    R3        2.02201   0.00475   0.00000   0.01095   0.01095   2.03296
    R4        2.73561  -0.01403   0.00000  -0.03477  -0.03370   2.70191
    R5        2.02201   0.00738   0.00000   0.01703   0.01703   2.03904
    R6        2.58690  -0.00363   0.00000  -0.00526  -0.00680   2.58010
    R7        2.02201   0.00837   0.00000   0.01932   0.01932   2.04133
    R8        2.86510   0.00314   0.00000   0.00591   0.00483   2.86993
    R9        2.56096   0.00014   0.00000   0.00023   0.00023   2.56119
   R10        2.85766  -0.05199   0.00000  -0.13590  -0.13883   2.71882
   R11        2.02201   0.01086   0.00000   0.02507   0.02507   2.04708
   R12        2.80178   0.02049   0.00000   0.06271   0.06248   2.86426
   R13        2.02201   0.00979   0.00000   0.02259   0.02259   2.04460
   R14        2.02201   0.01262   0.00000   0.02913   0.02913   2.05114
   R15        2.02201   0.00000   0.00000   0.00000   0.00000   2.02201
   R16        2.02201   0.00374   0.00000   0.00862   0.00862   2.03063
   R17        2.02201   0.00498   0.00000   0.01150   0.01150   2.03351
    A1        2.21457   0.01214   0.00000   0.03867   0.03856   2.25313
    A2        2.03379  -0.00578   0.00000  -0.01763  -0.01778   2.01601
    A3        2.03466  -0.00636   0.00000  -0.02054  -0.02066   2.01401
    A4        2.26949   0.00650   0.00000   0.02330   0.02151   2.29100
    A5        2.00689  -0.00207   0.00000  -0.00630  -0.00586   2.00103
    A6        2.00678  -0.00445   0.00000  -0.01722  -0.01660   1.99019
    A7        2.21694  -0.00138   0.00000   0.00773   0.00098   2.21791
    A8        2.03289  -0.00364   0.00000  -0.02338  -0.02062   2.01227
    A9        2.03327   0.00503   0.00000   0.01628   0.01916   2.05243
   A10        2.11813  -0.02829   0.00000  -0.10050  -0.10344   2.01469
   A11        2.08146   0.01750   0.00000   0.06154   0.06299   2.14444
   A12        2.08341   0.01077   0.00000   0.03917   0.04060   2.12401
   A13        2.10792   0.00936   0.00000   0.05062   0.03968   2.14760
   A14        2.08657  -0.01082   0.00000  -0.05309  -0.04786   2.03871
   A15        2.08843   0.00132   0.00000   0.00162   0.00664   2.09507
   A16        1.80813   0.01066   0.00000   0.07971   0.07562   1.88375
   A17        1.94081  -0.00596   0.00000  -0.04933  -0.05133   1.88948
   A18        1.93836  -0.00581   0.00000  -0.02849  -0.02638   1.91198
   A19        1.89592  -0.00277   0.00000   0.00966   0.01166   1.90758
   A20        1.98317   0.00285   0.00000  -0.00382  -0.00241   1.98076
   A21        1.89661   0.00105   0.00000  -0.00640  -0.00816   1.88844
   A22        1.93875   0.01358   0.00000   0.09627   0.08725   2.02600
   A23        2.17321  -0.00782   0.00000  -0.05437  -0.05147   2.12175
   A24        2.17075  -0.00599   0.00000  -0.04420  -0.04092   2.12983
   A25        2.09440   0.00322   0.00000   0.01478   0.01468   2.10907
   A26        2.09440   0.00485   0.00000   0.02224   0.02214   2.11653
   A27        2.09440  -0.00807   0.00000  -0.03702  -0.03712   2.05727
    D1        0.11147   0.00302   0.00000   0.05676   0.05482   0.16630
    D2       -3.03674  -0.00056   0.00000   0.01290   0.01063  -3.02612
    D3       -3.00986   0.00346   0.00000   0.02591   0.02456  -2.98530
    D4        0.12511  -0.00012   0.00000  -0.01796  -0.01964   0.10547
    D5        0.31332   0.00364   0.00000   0.00477   0.00347   0.31679
    D6       -2.80758   0.00442   0.00000  -0.00758  -0.00807  -2.81564
    D7       -2.84854   0.00320   0.00000   0.03566   0.03374  -2.81481
    D8        0.31375   0.00399   0.00000   0.02331   0.02220   0.33594
    D9        0.04476  -0.00015   0.00000   0.02254   0.02001   0.06478
   D10       -3.08192  -0.00171   0.00000  -0.03067  -0.03232  -3.11424
   D11       -3.09021   0.00342   0.00000   0.06637   0.06396  -3.02624
   D12        0.06630   0.00187   0.00000   0.01317   0.01163   0.07793
   D13        0.19404  -0.01456   0.00000  -0.20240  -0.20430  -0.01027
   D14       -2.92241  -0.00807   0.00000  -0.16323  -0.16471  -3.08711
   D15       -2.96247  -0.01307   0.00000  -0.14948  -0.15121  -3.11368
   D16        0.20427  -0.00658   0.00000  -0.11031  -0.11162   0.09265
   D17       -1.17064   0.00679   0.00000  -0.00289  -0.00140  -1.17203
   D18        0.86281   0.00669   0.00000   0.02969   0.02808   0.89089
   D19        2.97724  -0.00003   0.00000  -0.03176  -0.03060   2.94663
   D20        1.95024   0.00608   0.00000   0.00974   0.01029   1.96052
   D21       -2.29950   0.00598   0.00000   0.04231   0.03976  -2.25974
   D22       -0.18508  -0.00074   0.00000  -0.01913  -0.01892  -0.20400
   D23        3.13145   0.00261   0.00000   0.04427   0.04434  -3.10739
   D24       -0.01014   0.00486   0.00000   0.07142   0.07149   0.06135
   D25        0.01014   0.00386   0.00000   0.03385   0.03378   0.04392
   D26       -3.13145   0.00610   0.00000   0.06101   0.06093  -3.07052
   D27       -1.09289   0.02699   0.00000   0.28532   0.28614  -0.80675
   D28        2.01691   0.01927   0.00000   0.20716   0.20652   2.22344
   D29        2.02352   0.02033   0.00000   0.24532   0.24456   2.26809
   D30       -1.14986   0.01261   0.00000   0.16717   0.16495  -0.98491
   D31        1.61426  -0.00626   0.00000  -0.08905  -0.09326   1.52100
   D32       -1.49560   0.00149   0.00000  -0.01080  -0.01303  -1.50863
   D33       -0.45056  -0.00361   0.00000  -0.07764  -0.07973  -0.53029
   D34        2.72277   0.00413   0.00000   0.00061   0.00050   2.72327
   D35       -2.56369  -0.00485   0.00000  -0.07387  -0.07605  -2.63974
   D36        0.60963   0.00290   0.00000   0.00438   0.00419   0.61382
         Item               Value     Threshold  Converged?
 Maximum Force            0.051988     0.000450     NO 
 RMS     Force            0.011789     0.000300     NO 
 Maximum Displacement     0.466288     0.001800     NO 
 RMS     Displacement     0.094174     0.001200     NO 
 Predicted change in Energy=-3.988456D-02
 GradGradGradGradGradGradGradGradGradGradGradGradGradGradGradGradGradGrad

                          Input orientation:                          
 ---------------------------------------------------------------------
 Center     Atomic      Atomic             Coordinates (Angstroms)
 Number     Number       Type             X           Y           Z
 ---------------------------------------------------------------------
      1          6           0       -1.852623    2.977024    1.596184
      2          6           0       -0.497849    3.037908    1.710972
      3          6           0        0.363228    4.080251    2.176122
      4          6           0       -2.827024    4.031931    1.743454
      5          6           0       -0.010564    5.285355    2.697782
      6          6           0       -2.279033    5.444722    1.642577
      7          6           0       -1.384995    5.685259    2.842658
      8          1           0       -2.253968    2.008856    1.353477
      9          1           0        0.017756    2.128485    1.443822
     10          1           0        1.419858    3.860036    2.132305
     11          1           0        0.784696    5.975892    2.951138
     12          1           0       -1.771791    6.032254    3.778011
     13          6           0       -4.142044    3.792506    1.967729
     14          1           0       -4.844700    4.602174    2.041183
     15          1           0       -4.512418    2.791186    2.102420
     16          1           0       -1.689950    5.516038    0.737856
     17          1           0       -3.101657    6.148878    1.567877
 ---------------------------------------------------------------------
                    Distance matrix (angstroms):
                    1          2          3          4          5
     1  C    0.000000
     2  C    1.360990   0.000000
     3  C    2.542328   1.429789   0.000000
     4  C    1.443598   2.532626   3.219821   0.000000
     5  C    3.151997   2.502450   1.365329   3.227114   0.000000
     6  C    2.504698   2.995003   3.021257   1.518699   2.506952
     7  C    3.017766   3.012675   2.465077   2.453812   1.438740
     8  H    1.075795   2.066568   3.437606   2.138530   4.192310
     9  H    2.059502   1.079012   2.113055   3.435937   3.396917
    10  H    3.431656   2.128618   1.080224   4.268110   2.096999
    11  H    4.217174   3.437249   2.090871   4.275747   1.083268
    12  H    3.755174   3.855085   3.306760   3.042077   2.196969
    13  C    2.458558   3.730348   4.519258   1.355323   4.453168
    14  H    3.433899   4.631531   5.235754   2.117743   4.926127
    15  H    2.713913   4.041147   5.043713   2.123407   5.180929
    16  H    2.685103   2.917051   2.888881   2.122907   2.591304
    17  H    3.409039   4.059363   4.081005   2.141895   3.402530
                    6          7          8          9         10
     6  C    0.000000
     7  C    1.515704   0.000000
     8  H    3.448099   4.060630   0.000000
     9  H    4.038833   4.071252   2.276664   0.000000
    10  H    4.053746   3.421000   4.186936   2.331988   0.000000
    11  H    3.373560   2.191756   5.246272   4.202706   2.356006
    12  H    2.272128   1.070001   4.722138   4.887773   4.196845
    13  C    2.511245   3.456782   2.668997   4.510807   5.564746
    14  H    2.729729   3.712815   3.729629   5.488119   6.309022
    15  H    3.498673   4.324857   2.504707   4.625516   6.027872
    16  H    1.081954   2.133500   3.605195   3.858777   3.789160
    17  H    1.085415   2.187907   4.231351   5.090156   5.099164
                   11         12         13         14         15
    11  H    0.000000
    12  H    2.687475   0.000000
    13  C    5.477868   3.729838   0.000000
    14  H    5.865596   3.808473   1.074562   0.000000
    15  H    6.238757   4.563240   1.076085   1.842237   0.000000
    16  H    3.351709   3.084755   3.239740   3.533589   4.153694
    17  H    4.128810   2.582022   2.606679   2.377921   3.681043
                   16         17
    16  H    0.000000
    17  H    1.755659   0.000000
 Stoichiometry    C8H9(1-)
 Framework group  C1[X(C8H9)]
 Deg. of freedom    45
 Full point group                 C1      NOp   1
 Largest Abelian subgroup         C1      NOp   1
 Largest concise Abelian subgroup C1      NOp   1
                         Standard orientation:                         
 ---------------------------------------------------------------------
 Center     Atomic      Atomic             Coordinates (Angstroms)
 Number     Number       Type             X           Y           Z
 ---------------------------------------------------------------------
      1          6           0       -0.506650    1.322610    0.024689
      2          6           0        0.843559    1.490593    0.056527
      3          6           0        1.913391    0.544411   -0.010506
      4          6           0       -1.274096    0.102022    0.096566
      5          6           0        1.809201   -0.803979   -0.197893
      6          6           0       -0.532114   -1.103488    0.646707
      7          6           0        0.548132   -1.480210   -0.347531
      8          1           0       -1.084172    2.226544   -0.057213
      9          1           0        1.168282    2.518723    0.098614
     10          1           0        2.905969    0.963897    0.065014
     11          1           0        2.730049   -1.373803   -0.169462
     12          1           0        0.355497   -2.129405   -1.175986
     13          6           0       -2.565648    0.020455   -0.306100
     14          1           0       -3.116029   -0.897338   -0.209040
     15          1           0       -3.065037    0.861511   -0.754647
     16          1           0       -0.072146   -0.819708    1.584002
     17          1           0       -1.237063   -1.904902    0.843961
 ---------------------------------------------------------------------
 Rotational constants (GHZ):           3.6570787           1.9948889           1.3865144
 Standard basis: 3-21G (6D, 7F)
 There are    90 symmetry adapted cartesian basis functions of A   symmetry.
 There are    90 symmetry adapted basis functions of A   symmetry.
    90 basis functions,   147 primitive gaussians,    90 cartesian basis functions
    29 alpha electrons       29 beta electrons
       nuclear repulsion energy       334.5574562089 Hartrees.
 NAtoms=   17 NActive=   17 NUniq=   17 SFac= 1.00D+00 NAtFMM=   60 NAOKFM=F Big=F
 Integral buffers will be    131072 words long.
 Raffenetti 1 integral format.
 Two-electron integral symmetry is turned on.
 One-electron integrals computed using PRISM.
 NBasis=    90 RedAO= T EigKep=  3.77D-03  NBF=    90
 NBsUse=    90 1.00D-06 EigRej= -1.00D+00 NBFU=    90
 Initial guess from the checkpoint file:  "anion_isomer.chk"
 B after Tr=     0.000000   -0.000000   -0.000000
         Rot=    0.999923    0.009273    0.002241   -0.007911 Ang=   1.42 deg.
 ExpMin= 1.83D-01 ExpMax= 1.72D+02 ExpMxC= 1.72D+02 IAcc=3 IRadAn=         5 AccDes= 0.00D+00
 Harris functional with IExCor=  205 and IRadAn=       5 diagonalized for initial guess.
 HarFok:  IExCor=  205 AccDes= 0.00D+00 IRadAn=         5 IDoV= 1 UseB2=F ITyADJ=14
 ICtDFT=  3500011 ScaDFX=  1.000000  1.000000  1.000000  1.000000
 FoFCou: FMM=F IPFlag=           0 FMFlag=      100000 FMFlg1=           0
         NFxFlg=           0 DoJE=T BraDBF=F KetDBF=T FulRan=T
         wScrn=  0.000000 ICntrl=       500 IOpCl=  0 I1Cent=   200000004 NGrid=           0
         NMat0=    1 NMatS0=      1 NMatT0=    0 NMatD0=    1 NMtDS0=    0 NMtDT0=    0
 Petite list used in FoFCou.
 Keep R1 ints in memory in canonical form, NReq=9231758.
 Requested convergence on RMS density matrix=1.00D-08 within 128 cycles.
 Requested convergence on MAX density matrix=1.00D-06.
 Requested convergence on             energy=1.00D-06.
 No special actions if energy rises.
 SCF Done:  E(RHF) =  -306.327333074     A.U. after   15 cycles
            NFock= 15  Conv=0.57D-08     -V/T= 2.0015
 Calling FoFJK, ICntrl=      2127 FMM=F ISym2X=0 I1Cent= 0 IOpClX= 0 NMat=1 NMatS=1 NMatT=0.
 ***** Axes restored to original set *****
 -------------------------------------------------------------------
 Center     Atomic                   Forces (Hartrees/Bohr)
 Number     Number              X              Y              Z
 -------------------------------------------------------------------
      1        6           0.005999593   -0.004019102    0.001625659
      2        6           0.001412403    0.010544530    0.007830170
      3        6           0.009744866   -0.011210987   -0.027320422
      4        6          -0.021171521   -0.005960831    0.002350425
      5        6          -0.047582418    0.012902760    0.013064778
      6        6          -0.001640308   -0.013777464    0.014478685
      7        6           0.039725160   -0.001439084   -0.023570253
      8        1          -0.002908713   -0.001099928   -0.001804904
      9        1           0.001210840   -0.001427466    0.001177996
     10        1           0.000340332    0.001833244   -0.005964959
     11        1           0.001743978   -0.008133998    0.023639064
     12        1          -0.000198613    0.015902677   -0.003136313
     13        6           0.016095206    0.002457386   -0.005095515
     14        1          -0.002033464   -0.000720084   -0.001702311
     15        1          -0.001510526    0.000694092    0.002814179
     16        1           0.001282598    0.001746128   -0.001295817
     17        1          -0.000509413    0.001708126    0.002909540
 -------------------------------------------------------------------
 Cartesian Forces:  Max     0.047582418 RMS     0.012602293

 GradGradGradGradGradGradGradGradGradGradGradGradGradGradGradGradGradGrad
 Berny optimization.
 Using GEDIIS/GDIIS optimizer.
 FormGI is forming the generalized inverse of G from B-inverse, IUseBI=4.
 Internal  Forces:  Max     0.034636668 RMS     0.006488098
 Search for a local minimum.
 Step number   2 out of a maximum of   90
 All quantities printed in internal units (Hartrees-Bohrs-Radians)
 Mixed Optimization -- RFO/linear search
 Update second derivatives using D2CorX and points    1    2
 DE= -4.17D-02 DEPred=-3.99D-02 R= 1.05D+00
 TightC=F SS=  1.41D+00  RLast= 6.69D-01 DXNew= 5.0454D-01 2.0066D+00
 Trust test= 1.05D+00 RLast= 6.69D-01 DXMaxT set to 5.05D-01
 ITU=  1  0
 Use linear search instead of GDIIS.
     Eigenvalues ---    0.00783   0.01118   0.01329   0.01718   0.01765
     Eigenvalues ---    0.01871   0.01888   0.02014   0.02145   0.02505
     Eigenvalues ---    0.02682   0.02781   0.05959   0.07683   0.09547
     Eigenvalues ---    0.09891   0.15403   0.15688   0.15979   0.15991
     Eigenvalues ---    0.15996   0.16000   0.16124   0.16337   0.17550
     Eigenvalues ---    0.21528   0.22674   0.24920   0.25744   0.30006
     Eigenvalues ---    0.34050   0.37124   0.37230   0.37230   0.37230
     Eigenvalues ---    0.37230   0.37230   0.37230   0.37230   0.37556
     Eigenvalues ---    0.37646   0.42481   0.46109   0.52053   0.57352
 RFO step:  Lambda=-2.67116671D-02 EMin= 7.83221023D-03
 Quartic linear search produced a step of  0.93547.
 Iteration  1 RMS(Cart)=  0.08507230 RMS(Int)=  0.05482174
 Iteration  2 RMS(Cart)=  0.05429062 RMS(Int)=  0.00876801
 Iteration  3 RMS(Cart)=  0.00488411 RMS(Int)=  0.00677920
 Iteration  4 RMS(Cart)=  0.00004460 RMS(Int)=  0.00677906
 Iteration  5 RMS(Cart)=  0.00000019 RMS(Int)=  0.00677906
 Variable       Old X    -DE/DX   Delta X   Delta X   Delta X     New X
                                 (Linear)    (Quad)   (Total)
    R1        2.57190   0.00164  -0.06812   0.05518  -0.00605   2.56585
    R2        2.72801   0.00378   0.05520  -0.03450   0.02659   2.75460
    R3        2.03296   0.00248   0.01024   0.00228   0.01252   2.04548
    R4        2.70191  -0.00752  -0.03152  -0.00391  -0.03318   2.66873
    R5        2.03904   0.00149   0.01593  -0.00626   0.00967   2.04871
    R6        2.58010   0.01579  -0.00636   0.05722   0.04592   2.62602
    R7        2.04133   0.00020   0.01807  -0.01327   0.00481   2.04613
    R8        2.86993   0.00489   0.00451   0.01423   0.01566   2.88558
    R9        2.56119  -0.01327   0.00022  -0.03885  -0.03864   2.52255
   R10        2.71882  -0.03464  -0.12988  -0.06126  -0.19785   2.52097
   R11        2.04708   0.00162   0.02345  -0.01158   0.01188   2.05896
   R12        2.86426  -0.00449   0.05845  -0.06088  -0.00283   2.86144
   R13        2.04460   0.00190   0.02113  -0.00864   0.01249   2.05709
   R14        2.05114   0.00129   0.02725  -0.01590   0.01135   2.06248
   R15        2.02201   0.00249   0.00000   0.01029   0.01029   2.03230
   R16        2.03063   0.00067   0.00806  -0.00352   0.00455   2.03518
   R17        2.03351   0.00023   0.01076  -0.00746   0.00330   2.03681
    A1        2.25313  -0.00194   0.03607  -0.05492  -0.01818   2.23494
    A2        2.01601   0.00326  -0.01663   0.04660   0.02850   2.04451
    A3        2.01401  -0.00132  -0.01932   0.00809  -0.01197   2.00203
    A4        2.29100   0.00317   0.02012   0.00813   0.02347   2.31447
    A5        2.00103  -0.00091  -0.00549  -0.00243  -0.00733   1.99369
    A6        1.99019  -0.00233  -0.01552  -0.00674  -0.02038   1.96981
    A7        2.21791  -0.00487   0.00091  -0.01173  -0.03061   2.18730
    A8        2.01227   0.00156  -0.01929   0.01347  -0.00081   2.01146
    A9        2.05243   0.00323   0.01793  -0.00438   0.01989   2.07233
   A10        2.01469  -0.00672  -0.09677   0.01834  -0.08413   1.93056
   A11        2.14444   0.00382   0.05892  -0.01461   0.04634   2.19078
   A12        2.12401   0.00290   0.03798  -0.00336   0.03698   2.16100
   A13        2.14760   0.00572   0.03712   0.03159   0.03914   2.18674
   A14        2.03871  -0.00314  -0.04477   0.00771  -0.02345   2.01526
   A15        2.09507  -0.00260   0.00621  -0.03368  -0.01388   2.08119
   A16        1.88375   0.00771   0.07074   0.02526   0.08323   1.96698
   A17        1.88948  -0.00272  -0.04802   0.01029  -0.03878   1.85070
   A18        1.91198   0.00035  -0.02467   0.04230   0.02522   1.93720
   A19        1.90758  -0.00234   0.01091  -0.02926  -0.01463   1.89295
   A20        1.98076  -0.00441  -0.00226  -0.05651  -0.05608   1.92468
   A21        1.88844   0.00136  -0.00764   0.01032  -0.00072   1.88773
   A22        2.02600   0.00604   0.08162   0.00185   0.05953   2.08553
   A23        2.12175   0.00026  -0.04815   0.03521  -0.00304   2.11871
   A24        2.12983  -0.00658  -0.03828  -0.03165  -0.05891   2.07092
   A25        2.10907   0.00098   0.01373  -0.00320   0.01044   2.11952
   A26        2.11653   0.00152   0.02071  -0.00454   0.01608   2.13261
   A27        2.05727  -0.00251  -0.03473   0.00818  -0.02664   2.03064
    D1        0.16630   0.00140   0.05129   0.03986   0.08402   0.25032
    D2       -3.02612  -0.00048   0.00994   0.01229   0.01525  -3.01087
    D3       -2.98530   0.00034   0.02297   0.01036   0.02766  -2.95764
    D4        0.10547  -0.00154  -0.01837  -0.01721  -0.04112   0.06435
    D5        0.31679  -0.00008   0.00325  -0.00078  -0.00249   0.31431
    D6       -2.81564  -0.00079  -0.00755  -0.04574  -0.05468  -2.87033
    D7       -2.81481   0.00095   0.03156   0.02851   0.05253  -2.76227
    D8        0.33594   0.00024   0.02076  -0.01645   0.00033   0.33628
    D9        0.06478  -0.00018   0.01872   0.00800   0.01920   0.08397
   D10       -3.11424  -0.00285  -0.03024  -0.07894  -0.11288   3.05607
   D11       -3.02624   0.00166   0.05983   0.03534   0.08698  -2.93927
   D12        0.07793  -0.00101   0.01088  -0.05161  -0.04510   0.03283
   D13       -0.01027  -0.01053  -0.19112  -0.11833  -0.31170  -0.32197
   D14       -3.08711  -0.00993  -0.15408  -0.21732  -0.37352   2.82255
   D15       -3.11368  -0.00778  -0.14145  -0.02995  -0.17499   2.99451
   D16        0.09265  -0.00718  -0.10441  -0.12894  -0.23681  -0.14415
   D17       -1.17203  -0.00008  -0.00131  -0.06141  -0.05719  -1.22922
   D18        0.89089  -0.00010   0.02627  -0.07665  -0.05170   0.83919
   D19        2.94663   0.00016  -0.02863  -0.03465  -0.06132   2.88531
   D20        1.96052   0.00063   0.00962  -0.01709  -0.00599   1.95453
   D21       -2.25974   0.00061   0.03719  -0.03233  -0.00050  -2.26024
   D22       -0.20400   0.00087  -0.01770   0.00966  -0.01012  -0.21412
   D23       -3.10739   0.00216   0.04148   0.03214   0.07387  -3.03352
   D24        0.06135   0.00258   0.06688   0.01212   0.07926   0.14061
   D25        0.04392   0.00145   0.03160  -0.01569   0.01566   0.05958
   D26       -3.07052   0.00187   0.05700  -0.03570   0.02104  -3.04948
   D27       -0.80675   0.01617   0.26767   0.14363   0.41122  -0.39554
   D28        2.22344   0.01297   0.19320   0.19508   0.38498   2.60841
   D29        2.26809   0.01555   0.22878   0.24727   0.47494   2.74303
   D30       -0.98491   0.01235   0.15430   0.29871   0.44870  -0.53621
   D31        1.52100  -0.00457  -0.08725  -0.04128  -0.13646   1.38454
   D32       -1.50863  -0.00183  -0.01219  -0.09765  -0.11455  -1.62319
   D33       -0.53029  -0.00439  -0.07459  -0.05177  -0.12870  -0.65899
   D34        2.72327  -0.00166   0.00047  -0.10814  -0.10680   2.61647
   D35       -2.63974  -0.00151  -0.07114  -0.00631  -0.08339  -2.72313
   D36        0.61382   0.00122   0.00392  -0.06267  -0.06148   0.55233
         Item               Value     Threshold  Converged?
 Maximum Force            0.034637     0.000450     NO 
 RMS     Force            0.006488     0.000300     NO 
 Maximum Displacement     0.740358     0.001800     NO 
 RMS     Displacement     0.138780     0.001200     NO 
 Predicted change in Energy=-3.730321D-02
 GradGradGradGradGradGradGradGradGradGradGradGradGradGradGradGradGradGrad

                          Input orientation:                          
 ---------------------------------------------------------------------
 Center     Atomic      Atomic             Coordinates (Angstroms)
 Number     Number       Type             X           Y           Z
 ---------------------------------------------------------------------
      1          6           0       -1.849089    2.964278    1.586140
      2          6           0       -0.498511    3.098140    1.626343
      3          6           0        0.346880    4.121798    2.107829
      4          6           0       -2.860493    3.994257    1.788657
      5          6           0       -0.075398    5.264631    2.776171
      6          6           0       -2.250723    5.385132    1.629501
      7          6           0       -1.318702    5.748127    2.766336
      8          1           0       -2.241133    1.991881    1.317104
      9          1           0        0.045735    2.212795    1.317645
     10          1           0        1.406171    3.900148    2.073778
     11          1           0        0.694492    5.787310    3.342918
     12          1           0       -1.716728    6.287406    3.607370
     13          6           0       -4.155006    3.773614    2.028345
     14          1           0       -4.864364    4.582863    2.070643
     15          1           0       -4.543593    2.786448    2.218684
     16          1           0       -1.674037    5.356867    0.706674
     17          1           0       -3.028578    6.143061    1.521426
 ---------------------------------------------------------------------
                    Distance matrix (angstroms):
                    1          2          3          4          5
     1  C    0.000000
     2  C    1.357791   0.000000
     3  C    2.536591   1.412230   0.000000
     4  C    1.457672   2.531468   3.225738   0.000000
     5  C    3.139073   2.488939   1.389628   3.216488   0.000000
     6  C    2.454327   2.881074   2.927858   1.526985   2.461993
     7  C    3.069852   2.999122   2.419244   2.531609   1.334042
     8  H    1.082421   2.087143   3.443778   2.148367   4.186906
     9  H    2.056010   1.084129   2.087912   3.441166   3.384624
    10  H    3.422040   2.114528   1.082767   4.277216   2.133124
    11  H    4.186356   3.406101   2.102429   4.274189   1.089553
    12  H    3.891795   3.947143   3.346185   3.142363   2.104976
    13  C    2.483510   3.740030   4.516031   1.334877   4.407446
    14  H    3.456363   4.632761   5.231733   2.107480   4.888433
    15  H    2.773461   4.100086   5.070717   2.115785   5.139742
    16  H    2.555110   2.707305   2.751861   2.105961   2.616672
    17  H    3.391172   3.960277   3.977825   2.171872   3.326755
                    6          7          8          9         10
     6  C    0.000000
     7  C    1.514207   0.000000
     8  H    3.407615   4.130441   0.000000
     9  H    3.928702   4.056966   2.297513   0.000000
    10  H    3.971830   3.364461   4.185315   2.295579   0.000000
    11  H    3.431011   2.094500   5.208368   4.159300   2.382978
    12  H    2.238574   1.075446   4.896106   4.995155   4.219408
    13  C    2.526334   3.533831   2.709862   4.537343   5.562802
    14  H    2.769361   3.796519   3.763291   5.503936   6.307592
    15  H    3.515330   4.412639   2.597211   4.711993   6.054833
    16  H    1.088566   2.126395   3.466606   3.635395   3.671333
    17  H    1.091419   2.151616   4.230144   4.993989   5.000275
                   11         12         13         14         15
    11  H    0.000000
    12  H    2.476694   0.000000
    13  C    5.413013   3.841571   0.000000
    14  H    5.828401   3.895460   1.076969   0.000000
    15  H    6.140570   4.709173   1.077833   1.830824   0.000000
    16  H    3.570013   3.046598   3.226254   3.554952   4.138548
    17  H    4.160005   2.468389   2.672095   2.471026   3.748105
                   16         17
    16  H    0.000000
    17  H    1.765419   0.000000
 Stoichiometry    C8H9(1-)
 Framework group  C1[X(C8H9)]
 Deg. of freedom    45
 Full point group                 C1      NOp   1
 Largest Abelian subgroup         C1      NOp   1
 Largest concise Abelian subgroup C1      NOp   1
                         Standard orientation:                         
 ---------------------------------------------------------------------
 Center     Atomic      Atomic             Coordinates (Angstroms)
 Number     Number       Type             X           Y           Z
 ---------------------------------------------------------------------
      1          6           0       -0.538438    1.324655   -0.006557
      2          6           0        0.806565    1.481498    0.093254
      3          6           0        1.883626    0.571390    0.015561
      4          6           0       -1.305237    0.086246    0.049735
      5          6           0        1.773671   -0.779187   -0.292528
      6          6           0       -0.475408   -1.031833    0.676606
      7          6           0        0.651476   -1.497030   -0.221473
      8          1           0       -1.136194    2.223899   -0.081949
      9          1           0        1.131122    2.514387    0.149272
     10          1           0        2.869279    1.017892    0.054414
     11          1           0        2.695896   -1.263364   -0.612214
     12          1           0        0.476520   -2.329713   -0.879206
     13          6           0       -2.574225   -0.058574   -0.338330
     14          1           0       -3.109307   -0.979237   -0.177309
     15          1           0       -3.109798    0.722166   -0.853433
     16          1           0       -0.042866   -0.613037    1.583520
     17          1           0       -1.106825   -1.875987    0.959298
 ---------------------------------------------------------------------
 Rotational constants (GHZ):           3.6809233           2.0008316           1.3967510
 Standard basis: 3-21G (6D, 7F)
 There are    90 symmetry adapted cartesian basis functions of A   symmetry.
 There are    90 symmetry adapted basis functions of A   symmetry.
    90 basis functions,   147 primitive gaussians,    90 cartesian basis functions
    29 alpha electrons       29 beta electrons
       nuclear repulsion energy       336.1566608797 Hartrees.
 NAtoms=   17 NActive=   17 NUniq=   17 SFac= 1.00D+00 NAtFMM=   60 NAOKFM=F Big=F
 Integral buffers will be    131072 words long.
 Raffenetti 1 integral format.
 Two-electron integral symmetry is turned on.
 One-electron integrals computed using PRISM.
 NBasis=    90 RedAO= T EigKep=  3.69D-03  NBF=    90
 NBsUse=    90 1.00D-06 EigRej= -1.00D+00 NBFU=    90
 Initial guess from the checkpoint file:  "anion_isomer.chk"
 B after Tr=    -0.000000    0.000000   -0.000000
         Rot=    0.999843    0.012788   -0.001146   -0.012188 Ang=   2.03 deg.
 ExpMin= 1.83D-01 ExpMax= 1.72D+02 ExpMxC= 1.72D+02 IAcc=3 IRadAn=         5 AccDes= 0.00D+00
 Harris functional with IExCor=  205 and IRadAn=       5 diagonalized for initial guess.
 HarFok:  IExCor=  205 AccDes= 0.00D+00 IRadAn=         5 IDoV= 1 UseB2=F ITyADJ=14
 ICtDFT=  3500011 ScaDFX=  1.000000  1.000000  1.000000  1.000000
 FoFCou: FMM=F IPFlag=           0 FMFlag=      100000 FMFlg1=           0
         NFxFlg=           0 DoJE=T BraDBF=F KetDBF=T FulRan=T
         wScrn=  0.000000 ICntrl=       500 IOpCl=  0 I1Cent=   200000004 NGrid=           0
         NMat0=    1 NMatS0=      1 NMatT0=    0 NMatD0=    1 NMtDS0=    0 NMtDT0=    0
 Petite list used in FoFCou.
 Keep R1 ints in memory in canonical form, NReq=9231876.
 Requested convergence on RMS density matrix=1.00D-08 within 128 cycles.
 Requested convergence on MAX density matrix=1.00D-06.
 Requested convergence on             energy=1.00D-06.
 No special actions if energy rises.
 SCF Done:  E(RHF) =  -306.359441472     A.U. after   15 cycles
            NFock= 15  Conv=0.63D-08     -V/T= 2.0010
 Calling FoFJK, ICntrl=      2127 FMM=F ISym2X=0 I1Cent= 0 IOpClX= 0 NMat=1 NMatS=1 NMatT=0.
 ***** Axes restored to original set *****
 -------------------------------------------------------------------
 Center     Atomic                   Forces (Hartrees/Bohr)
 Number     Number              X              Y              Z
 -------------------------------------------------------------------
      1        6          -0.024837698   -0.007043111   -0.000571202
      2        6           0.017043532    0.005622507    0.009045187
      3        6           0.010272112   -0.019517627   -0.021113357
      4        6           0.022196515   -0.006132898   -0.000097790
      5        6           0.020363437    0.005803604    0.009277756
      6        6          -0.008619307    0.006333668    0.000649465
      7        6          -0.024225584    0.001524573   -0.002815324
      8        1           0.001565043    0.001713004    0.000782612
      9        1          -0.001037609    0.000985124   -0.001171425
     10        1          -0.002741529    0.003350076   -0.000761748
     11        1          -0.006114561   -0.006549767    0.008604241
     12        1           0.001946911    0.010890460   -0.005459165
     13        6          -0.006429947    0.001734565    0.001104299
     14        1           0.000082927   -0.000220375   -0.000135754
     15        1           0.000989984    0.000740449   -0.000773405
     16        1          -0.000431044    0.003673898    0.002230314
     17        1          -0.000023183   -0.002908151    0.001205294
 -------------------------------------------------------------------
 Cartesian Forces:  Max     0.024837698 RMS     0.009065412

 GradGradGradGradGradGradGradGradGradGradGradGradGradGradGradGradGradGrad
 Berny optimization.
 Using GEDIIS/GDIIS optimizer.
 FormGI is forming the generalized inverse of G from B-inverse, IUseBI=4.
 Internal  Forces:  Max     0.025163229 RMS     0.004962573
 Search for a local minimum.
 Step number   3 out of a maximum of   90
 All quantities printed in internal units (Hartrees-Bohrs-Radians)
 Mixed Optimization -- RFO/linear search
 Update second derivatives using D2CorX and points    2    3
 DE= -3.21D-02 DEPred=-3.73D-02 R= 8.61D-01
 TightC=F SS=  1.41D+00  RLast= 1.13D+00 DXNew= 8.4853D-01 3.3957D+00
 Trust test= 8.61D-01 RLast= 1.13D+00 DXMaxT set to 8.49D-01
 ITU=  1  1  0
 Use linear search instead of GDIIS.
     Eigenvalues ---    0.00851   0.01181   0.01472   0.01605   0.01818
     Eigenvalues ---    0.01860   0.01954   0.02031   0.02148   0.02230
     Eigenvalues ---    0.02684   0.02750   0.05699   0.07306   0.10261
     Eigenvalues ---    0.10884   0.15661   0.15811   0.15910   0.15958
     Eigenvalues ---    0.15999   0.16020   0.16234   0.17137   0.18779
     Eigenvalues ---    0.21872   0.23069   0.24774   0.28523   0.30094
     Eigenvalues ---    0.34120   0.37095   0.37230   0.37230   0.37230
     Eigenvalues ---    0.37230   0.37230   0.37230   0.37252   0.37549
     Eigenvalues ---    0.37636   0.42518   0.45971   0.53320   0.56534
 RFO step:  Lambda=-1.32451808D-02 EMin= 8.51317311D-03
 Quartic linear search produced a step of  0.16514.
 Iteration  1 RMS(Cart)=  0.06945228 RMS(Int)=  0.00838473
 Iteration  2 RMS(Cart)=  0.00801057 RMS(Int)=  0.00133508
 Iteration  3 RMS(Cart)=  0.00007767 RMS(Int)=  0.00133275
 Iteration  4 RMS(Cart)=  0.00000003 RMS(Int)=  0.00133275
 Variable       Old X    -DE/DX   Delta X   Delta X   Delta X     New X
                                 (Linear)    (Quad)   (Total)
    R1        2.56585   0.01659  -0.00100   0.03425   0.03430   2.60015
    R2        2.75460  -0.00378   0.00439  -0.01662  -0.01102   2.74358
    R3        2.04548  -0.00230   0.00207  -0.00848  -0.00641   2.03907
    R4        2.66873  -0.00455  -0.00548  -0.00793  -0.01323   2.65549
    R5        2.04871  -0.00099   0.00160  -0.00440  -0.00281   2.04590
    R6        2.62602   0.01991   0.00758   0.03193   0.03857   2.66459
    R7        2.04613  -0.00334   0.00079  -0.00981  -0.00902   2.03712
    R8        2.88558   0.00102   0.00259   0.00158   0.00423   2.88982
    R9        2.52255   0.00486  -0.00638   0.01621   0.00983   2.53238
   R10        2.52097   0.02516  -0.03267   0.12246   0.08856   2.60954
   R11        2.05896  -0.00299   0.00196  -0.01015  -0.00819   2.05077
   R12        2.86144  -0.00418  -0.00047  -0.00840  -0.00921   2.85222
   R13        2.05709  -0.00221   0.00206  -0.00820  -0.00613   2.05096
   R14        2.06248  -0.00212   0.00187  -0.00771  -0.00584   2.05665
   R15        2.03230   0.00047   0.00170  -0.00065   0.00105   2.03334
   R16        2.03518  -0.00023   0.00075  -0.00142  -0.00067   2.03451
   R17        2.03681  -0.00117   0.00055  -0.00372  -0.00318   2.03363
    A1        2.23494  -0.00193  -0.00300  -0.01276  -0.01573   2.21922
    A2        2.04451   0.00016   0.00471  -0.00247   0.00207   2.04658
    A3        2.00203   0.00172  -0.00198   0.01525   0.01320   2.01523
    A4        2.31447   0.00170   0.00388  -0.00308  -0.00068   2.31380
    A5        1.99369  -0.00147  -0.00121  -0.00335  -0.00405   1.98964
    A6        1.96981  -0.00019  -0.00337   0.00750   0.00482   1.97463
    A7        2.18730  -0.00555  -0.00506  -0.01542  -0.02518   2.16212
    A8        2.01146   0.00423  -0.00013   0.01480   0.01504   2.02650
    A9        2.07233   0.00087   0.00329  -0.00706  -0.00316   2.06916
   A10        1.93056   0.00957  -0.01389   0.05469   0.04067   1.97123
   A11        2.19078  -0.00173   0.00765  -0.01646  -0.00899   2.18179
   A12        2.16100  -0.00789   0.00611  -0.03896  -0.03304   2.12795
   A13        2.18674  -0.00052   0.00646   0.00868   0.00897   2.19571
   A14        2.01526   0.00241  -0.00387   0.00870   0.00730   2.02256
   A15        2.08119  -0.00188  -0.00229  -0.01729  -0.01710   2.06409
   A16        1.96698  -0.00454   0.01374  -0.02744  -0.01600   1.95098
   A17        1.85070   0.00097  -0.00640   0.01314   0.00699   1.85769
   A18        1.93720   0.00264   0.00416   0.00307   0.00836   1.94556
   A19        1.89295   0.00018  -0.00242  -0.00728  -0.00959   1.88336
   A20        1.92468   0.00135  -0.00926   0.02003   0.01169   1.93637
   A21        1.88773  -0.00056  -0.00012  -0.00137  -0.00185   1.88588
   A22        2.08553   0.00079   0.00983   0.00702   0.01122   2.09675
   A23        2.11871   0.00090  -0.00050   0.00247   0.00398   2.12269
   A24        2.07092  -0.00160  -0.00973  -0.00205  -0.00977   2.06115
   A25        2.11952   0.00056   0.00172   0.00177   0.00348   2.12299
   A26        2.13261  -0.00099   0.00265  -0.00844  -0.00580   2.12681
   A27        2.03064   0.00044  -0.00440   0.00695   0.00254   2.03317
    D1        0.25032   0.00134   0.01388   0.01125   0.02399   0.27431
    D2       -3.01087   0.00176   0.00252   0.02387   0.02528  -2.98559
    D3       -2.95764   0.00038   0.00457   0.01231   0.01628  -2.94136
    D4        0.06435   0.00081  -0.00679   0.02494   0.01757   0.08193
    D5        0.31431   0.00007  -0.00041   0.01911   0.01869   0.33300
    D6       -2.87033  -0.00128  -0.00903  -0.00001  -0.00891  -2.87924
    D7       -2.76227   0.00105   0.00868   0.01861   0.02661  -2.73566
    D8        0.33628  -0.00030   0.00006  -0.00052  -0.00099   0.33529
    D9        0.08397   0.00174   0.00317   0.01987   0.02201   0.10598
   D10        3.05607  -0.00117  -0.01864  -0.03383  -0.05292   3.00315
   D11       -2.93927   0.00139   0.01436   0.00793   0.02118  -2.91808
   D12        0.03283  -0.00151  -0.00745  -0.04577  -0.05374  -0.02091
   D13       -0.32197  -0.00430  -0.05148  -0.09383  -0.14460  -0.46657
   D14        2.82255  -0.00705  -0.06169  -0.13118  -0.19240   2.63015
   D15        2.99451  -0.00157  -0.02890  -0.04031  -0.06951   2.92501
   D16       -0.14415  -0.00432  -0.03911  -0.07765  -0.11730  -0.26145
   D17       -1.22922  -0.00081  -0.00944  -0.01022  -0.01827  -1.24749
   D18        0.83919  -0.00249  -0.00854  -0.02599  -0.03433   0.80486
   D19        2.88531  -0.00122  -0.01013  -0.01841  -0.02799   2.85732
   D20        1.95453   0.00034  -0.00099   0.00791   0.00774   1.96227
   D21       -2.26024  -0.00133  -0.00008  -0.00786  -0.00832  -2.26856
   D22       -0.21412  -0.00006  -0.00167  -0.00028  -0.00199  -0.21610
   D23       -3.03352   0.00066   0.01220   0.00747   0.01930  -3.01422
   D24        0.14061   0.00012   0.01309  -0.00330   0.00942   0.15003
   D25        0.05958  -0.00043   0.00259  -0.01182  -0.00887   0.05071
   D26       -3.04948  -0.00098   0.00348  -0.02259  -0.01875  -3.06822
   D27       -0.39554   0.00199   0.06791   0.10076   0.16918  -0.22636
   D28        2.60841   0.00265   0.06358   0.16411   0.22789   2.83630
   D29        2.74303   0.00484   0.07843   0.13944   0.21804   2.96107
   D30       -0.53621   0.00550   0.07410   0.20280   0.27675  -0.25946
   D31        1.38454  -0.00452  -0.02254  -0.08514  -0.10855   1.27599
   D32       -1.62319  -0.00535  -0.01892  -0.14709  -0.16624  -1.78942
   D33       -0.65899  -0.00317  -0.02125  -0.08053  -0.10190  -0.76089
   D34        2.61647  -0.00400  -0.01764  -0.14248  -0.15959   2.45688
   D35       -2.72313  -0.00337  -0.01377  -0.08607  -0.10059  -2.82372
   D36        0.55233  -0.00421  -0.01015  -0.14802  -0.15828   0.39406
         Item               Value     Threshold  Converged?
 Maximum Force            0.025163     0.000450     NO 
 RMS     Force            0.004963     0.000300     NO 
 Maximum Displacement     0.328395     0.001800     NO 
 RMS     Displacement     0.072965     0.001200     NO 
 Predicted change in Energy=-1.039784D-02
 GradGradGradGradGradGradGradGradGradGradGradGradGradGradGradGradGradGrad

                          Input orientation:                          
 ---------------------------------------------------------------------
 Center     Atomic      Atomic             Coordinates (Angstroms)
 Number     Number       Type             X           Y           Z
 ---------------------------------------------------------------------
      1          6           0       -1.844374    2.952920    1.581775
      2          6           0       -0.475852    3.094963    1.595524
      3          6           0        0.369908    4.108402    2.077492
      4          6           0       -2.835824    3.990251    1.802698
      5          6           0       -0.080800    5.226940    2.808211
      6          6           0       -2.275717    5.400428    1.612404
      7          6           0       -1.340531    5.787466    2.732095
      8          1           0       -2.238029    1.983671    1.317394
      9          1           0        0.061229    2.218628    1.255383
     10          1           0        1.425316    3.889010    2.069999
     11          1           0        0.626268    5.646230    3.516697
     12          1           0       -1.710811    6.448826    3.495816
     13          6           0       -4.132074    3.771833    2.063157
     14          1           0       -4.843671    4.578716    2.103995
     15          1           0       -4.512985    2.785293    2.262523
     16          1           0       -1.702999    5.381612    0.690689
     17          1           0       -3.072131    6.133566    1.499713
 ---------------------------------------------------------------------
                    Distance matrix (angstroms):
                    1          2          3          4          5
     1  C    0.000000
     2  C    1.375942   0.000000
     3  C    2.546353   1.405226   0.000000
     4  C    1.451839   2.532574   3.219657   0.000000
     5  C    3.128179   2.484351   1.410041   3.182862   0.000000
     6  C    2.485416   2.924888   2.980767   1.529226   2.505536
     7  C    3.100282   3.047792   2.484625   2.515882   1.380907
     8  H    1.079029   2.101807   3.448705   2.149242   4.170727
     9  H    2.068100   1.082643   2.083841   3.439640   3.388420
    10  H    3.435913   2.114255   1.077996   4.270716   2.145553
    11  H    4.135446   3.378541   2.121779   4.203111   1.085220
    12  H    3.987825   4.047793   3.437821   3.190124   2.150056
    13  C    2.477079   3.747638   4.514567   1.340077   4.368667
    14  H    3.451334   4.640895   5.234816   2.113887   4.858091
    15  H    2.759167   4.103562   5.062360   2.115711   5.089565
    16  H    2.590862   2.748342   2.800220   2.110863   2.671957
    17  H    3.410371   3.997869   4.035188   2.177485   3.388539
                    6          7          8          9         10
     6  C    0.000000
     7  C    1.509331   0.000000
     8  H    3.429676   4.156409   0.000000
     9  H    3.963917   4.108797   2.312064   0.000000
    10  H    4.023857   3.419417   4.197240   2.305322   0.000000
    11  H    3.479694   2.122226   5.143488   4.145030   2.412309
    12  H    2.228339   1.075999   4.996107   5.104335   4.291957
    13  C    2.510290   3.507558   2.709444   4.544088   5.558629
    14  H    2.740667   3.758667   3.760633   5.508920   6.306904
    15  H    3.502422   4.392950   2.590615   4.717931   6.043068
    16  H    1.085320   2.112686   3.496429   3.665495   3.730511
    17  H    1.088331   2.153367   4.236814   5.020397   5.058684
                   11         12         13         14         15
    11  H    0.000000
    12  H    2.471140   0.000000
    13  C    5.316762   3.883467   0.000000
    14  H    5.749395   3.905033   1.076614   0.000000
    15  H    6.014136   4.774376   1.076152   1.830534   0.000000
    16  H    3.671762   3.001290   3.221096   3.536367   4.136128
    17  H    4.240740   2.436598   2.649289   2.433325   3.724094
                   16         17
    16  H    0.000000
    17  H    1.759112   0.000000
 Stoichiometry    C8H9(1-)
 Framework group  C1[X(C8H9)]
 Deg. of freedom    45
 Full point group                 C1      NOp   1
 Largest Abelian subgroup         C1      NOp   1
 Largest concise Abelian subgroup C1      NOp   1
                         Standard orientation:                         
 ---------------------------------------------------------------------
 Center     Atomic      Atomic             Coordinates (Angstroms)
 Number     Number       Type             X           Y           Z
 ---------------------------------------------------------------------
      1          6           0       -0.507345    1.347032   -0.007767
      2          6           0        0.856882    1.474909    0.117730
      3          6           0        1.910191    0.548493    0.034338
      4          6           0       -1.280707    0.119132    0.037043
      5          6           0        1.742889   -0.800184   -0.341556
      6          6           0       -0.526043   -1.037009    0.694578
      7          6           0        0.592065   -1.546530   -0.181951
      8          1           0       -1.083837    2.255815   -0.085715
      9          1           0        1.196985    2.499061    0.204665
     10          1           0        2.906322    0.960394    0.045984
     11          1           0        2.591714   -1.263542   -0.833997
     12          1           0        0.432945   -2.461261   -0.725754
     13          6           0       -2.552466   -0.003613   -0.367147
     14          1           0       -3.112039   -0.908797   -0.204000
     15          1           0       -3.061457    0.787910   -0.889185
     16          1           0       -0.083604   -0.638393    1.601921
     17          1           0       -1.199817   -1.844568    0.974477
 ---------------------------------------------------------------------
 Rotational constants (GHZ):           3.5753568           2.0105334           1.3938332
 Standard basis: 3-21G (6D, 7F)
 There are    90 symmetry adapted cartesian basis functions of A   symmetry.
[...]
 4.7968673,-3.3426231,-1.9597471,0.3023143,-1.8236276,-1.1035594,1.5241
 837,-1.430164,-5.0828572,-0.8382399,-1.7328012,-0.1886795,2.3735931,5.
 7283251,12.6909272,-1.3502769,3.4822883,1.8900605,-2.3459207,1.3324288
 ,8.4489771,6.8993475,6.0314165,2.5439711,37.1702912,5.0176958,-1.91450
 9,1.0215655,-1.2721222,-0.7698032,-6.8290875,-2.4051053,-0.4146706,-0.
 138062,0.8591631,0.1129146,-7.2662489,-1.7710795,-0.783579,6.1160591,2
 .1100265,-0.507835,-3.3970151,-0.6694389,15.5674844,-1.6729172,5.88916
 36,1.0851664,5.4231545,-2.1007939,-16.3513074,-2.6514393,-4.1944415,-3
 .5680673,0.9447788,-2.8809422,-2.0005622,-1.5947533,-4.2017321,-1.9049
 785,1.1754008,-2.5841981,1.8182725,0.5341378,0.2264598,-2.3216474,-5.0
 56545,0.9432506,-0.1917563,-0.6574448,0.6610442,-0.1234538,1.6128278,-
 0.0515414,0.8446739,-1.9102586,-3.1312626,2.921995,3.0188331,3.1964718
 ,-10.0224714,0.5421174,-4.4887932,-0.9948908,1.6747714,1.3612273,11.34
 03629,2.4621111,-0.9991802,-1.2482907,0.3033172,1.453781,-6.1800957,0.
 3249359,2.1535329,1.0955022,-1.2803243,-1.9787717,-1.7360929,-0.573106
 2,-0.5815035,-0.256909,-2.1237893,-2.3242889,-8.6456793,-0.7468934,-2.
 1934827,-0.660479,2.0743883,-0.029454,-1.1380096,0.14209,-1.7350209,-1
 .085759,3.665473,-3.1516413,2.7426005,-1.2929326,1.0595231,0.55374,-2.
 4250385,4.3236066,-7.0599142,1.3362038,-2.1098665,-0.7821657,-0.949343
 3,0.9457004,-1.8754498,1.651354,-2.5696554,-1.9507067,13.5239806,-1.24
 53613,0.3224608,0.0016848,0.1115935,0.2067534,-1.5788457,2.3994282,-0.
 5251671,0.4129708,0.2607355,0.1235473,-0.2766922,0.4297894,0.1613417,1
 .4412549,-0.6121603,-0.3247537,6.1779049,3.1767977,2.7555228,3.9225246
 ,1.9264431,2.1667825,2.0998637,3.7972846,3.8509103,1.9422118,2.3424022
 ,1.1871406,4.891291,1.5636878,-0.9753022,4.1346172,1.8379924,4.6961457
 ,-0.3087961,1.5410751,-2.0519007,0.9472691,-0.8725401,-1.0133821,0.297
 4106,-0.8671169,5.4622157,-0.5580516,3.7110227,1.8410922,0.3515248,-0.
 3455804,4.4288993,-0.3402638,4.1348782,4.5651274,-30.1908641,-5.201899
 6,2.5245949,-1.8858323,-0.0165496,0.3353583,-7.1584646,1.0063014,0.971
 2298,-1.7310781,-1.1250722,-0.0368831,0.9550494,-0.6198009,-0.8470616,
 -12.7848743,-2.6430445,0.6171515,-8.7607511,2.4913533,-1.2617614,0.477
 5759,0.2828057,0.0364304,3.7172841,-4.0694261,2.0957976,0.1782897,0.14
 00691,0.2022839,0.3807533,0.4383304,0.3473712,-0.4460164,1.671107,-0.1
 180944,-5.8070436,-2.8934174,-2.0606279,0.8107171,0.2347106,0.0620765,
 -2.9929114,-4.9522952,-6.6331959,1.0348721,1.0298677,-0.2756809,1.4698
 508,0.6941502,0.7804851,0.2964374,-1.7873735,0.8266284,1.6154882,0.471
 1518,0.2490124,-1.5006316,-0.7517925,1.4305615,1.0435992,0.2625906,1.3
 202661,-0.2195449,-1.7596958,0.8946843,-0.5756839,-0.2134966,-1.639695
 1,0.9724725,2.637925,-7.4106151,-3.6527047,2.831577,-2.4879353,-0.1951
 273,0.2952741,0.1531688,1.8308841,-2.8126556,4.3282162,0.325497,-0.496
 4576,0.3191623,-0.0998799,0.3112686,-0.3889345,-0.9921226,1.6450281,-0
 .6439814\HyperPolar=112.26892,31.2551241,-73.4423567,30.4767661,-17.61
 6498,-6.2065751,48.3046829,13.436493,55.2895764,10.404257\Quadrupole=-
 4.3619902,2.3046503,2.0573399,-2.2401614,-0.234916,0.1643214\PG=C01 [X
 (C8H9)]\NImag=0\\0.75058106,0.04604174,0.64498769,0.00840913,0.1292184
 8,0.15162127,-0.36232729,-0.05609685,-0.00989692,0.75708325,0.01646645
 ,-0.14145639,-0.01710991,0.00724162,0.64693928,0.00596689,-0.01841857,
 -0.06994417,0.01204956,0.19181725,0.26319218,-0.04936574,-0.02293550,-
 0.01281655,-0.20365366,-0.11758544,-0.05001558,0.73044924,-0.06971382,
 0.01821225,-0.00927824,-0.04114146,-0.23395075,-0.06256674,-0.00431673
 ,0.54657989,-0.02666117,-0.00166390,0.00985204,-0.02873641,-0.08133621
 ,-0.09650907,0.03289692,0.22871499,0.23529438,-0.15411305,0.05896471,0
 .02215352,-0.07225633,0.01509718,0.00530685,0.01764105,0.02823071,0.01
 349025,0.83041236,0.05055207,-0.20256480,-0.02852754,0.03969722,0.0260
 1335,0.00770326,-0.01695838,-0.02735925,-0.00732446,0.02403876,0.55744
 477,0.00434947,-0.02182731,-0.08062288,0.01130975,0.00563860,-0.000536
 33,-0.00414711,-0.00389921,-0.00398308,-0.10845875,-0.00850049,0.24689
 394,-0.01961412,-0.00291324,-0.00591978,0.04042568,-0.00212703,0.00288
 390,-0.14627682,0.02103754,-0.00467830,0.00931839,-0.00444559,-0.00213
 432,0.80145012,0.03517911,-0.00415033,0.00660020,-0.03680112,-0.052831
 11,-0.04010178,0.06275735,-0.19165703,-0.07113051,-0.01842261,0.016311
 45,0.00316747,-0.14859410,0.51249862,0.01512548,0.00028677,0.00021630,
 -0.01442173,-0.02540476,-0.01476571,0.03198602,-0.09463027,-0.12747395
 ,-0.00934467,0.00899243,0.00057653,0.14969955,0.20836420,0.41848281,0.
 00854765,0.01733572,-0.00085719,0.00614129,0.00659816,0.00155863,0.001
 68456,-0.01242712,-0.00459537,-0.10156127,-0.00939557,0.00407391,-0.03
 395006,-0.00254153,-0.02684613,0.60289993,-0.00552216,-0.03852644,0.00
 031025,-0.00335041,0.00087046,0.00028567,0.00362263,-0.00402701,0.0008
 9215,-0.02430162,-0.15746537,0.01490599,0.00199097,0.01220629,0.010452
 54,-0.09697343,0.51112072,0.00586295,-0.00267491,0.00167862,-0.0000498
 4,0.00030262,-0.00010338,0.00316107,-0.00065890,-0.00183576,0.00883789
 ,0.02594930,-0.08537440,-0.00554293,-0.00151599,-0.00176729,-0.0513872
 5,0.00092601,0.55808343,0.01809233,0.00409210,0.00461203,-0.02356563,-
 0.01818258,-0.01393653,-0.01284746,0.05404574,0.02984427,-0.02244636,-
 0.00647225,-0.00543244,-0.44930775,0.14095983,-0.05080926,-0.13099435,
 0.00407013,-0.06245056,0.73130554,-0.00904893,0.00620235,0.00290803,0.
 01900028,0.00815311,0.00570344,0.03398276,-0.02770912,-0.01538654,-0.0
 1855034,-0.01296538,-0.02708971,0.16506465,-0.16580373,-0.01203792,-0.
 00690134,-0.09325221,-0.03537222,-0.24357466,0.47050546,-0.00888423,0.
 00224140,0.00090908,0.00999502,0.00399652,0.00119393,0.01680182,-0.019
 27195,0.00978126,0.00192787,-0.01781336,0.00062895,-0.03653927,-0.0136
 0993,-0.10734475,-0.05577796,-0.02274894,-0.15409465,0.08322729,0.2212
 1839,0.44618559,-0.10208788,-0.09219562,-0.02362035,-0.01579174,-0.038
 50454,-0.01085736,-0.00416043,0.00187649,0.00079470,0.00776506,0.02478
 201,0.00680051,-0.00067025,0.00138871,0.00072565,-0.00315339,0.0026659
 7,0.00040200,0.00054618,-0.00065155,-0.00030761,0.11654046,-0.09556404
 ,-0.29207674,-0.07407755,0.00515181,-0.00309395,-0.00085789,-0.0006165
 3,0.00207505,-0.00076210,-0.01350561,-0.02494927,-0.00637637,0.0000882
 5,0.00015893,0.00012326,0.00392649,-0.00255807,-0.00174320,0.00067959,
 0.00041244,0.00057172,0.10007142,0.31745499,-0.01859268,-0.07987194,-0
 .04766630,-0.00516648,-0.00310515,-0.00112024,0.00053198,0.00113679,0.
 00702483,-0.01102999,-0.00440990,0.00208789,0.00190584,-0.00177304,-0.
 00066604,0.00312115,0.00300062,0.00400073,-0.00214034,0.00202336,-0.00
 053513,0.02783102,0.08036859,0.04287783,-0.01916303,0.03502835,0.01154
 867,-0.13326656,0.10493624,0.04163033,0.01089985,-0.01910503,-0.008751
 25,-0.00616348,-0.00294137,0.00095711,-0.00123280,-0.00332594,-0.00148
 811,0.00025584,-0.00067017,0.00015785,-0.00065523,0.00036338,-0.000125
 41,0.00042560,-0.00030554,-0.00078076,0.14765674,-0.00197655,0.0011325
 8,-0.00184234,0.10402255,-0.24458245,-0.07475724,0.01883168,-0.0218570
 7,-0.01147657,-0.00151690,0.00344778,-0.00335331,-0.00509632,-0.001056
 32,-0.00318331,-0.00030001,0.00020149,0.00002997,-0.00038150,0.0007917
 5,0.00067609,-0.00010869,0.00180095,0.00312483,-0.11446043,0.26168739,
 -0.00415551,-0.00051683,0.00682685,0.04565014,-0.07132720,-0.08070034,
 0.00377433,-0.01668084,-0.00012027,-0.00072315,-0.00261898,0.00866567,
 -0.00149571,-0.00379975,0.00749351,-0.00009129,-0.00018936,-0.00009230
 ,0.00042092,-0.00108559,-0.00149421,-0.00000960,0.00222033,-0.00523079
 ,-0.04276011,0.09000573,0.07017983,0.00111215,-0.00346589,-0.00185039,
 -0.02284410,0.00870603,0.00200041,-0.34180927,0.05199499,-0.00090811,0
 .00126944,0.00002767,-0.00025978,-0.00987028,-0.00276250,-0.00387938,0
 .00027321,-0.00040041,0.00021885,0.00068979,0.00195142,0.00241904,-0.0
 0127967,-0.00039004,-0.00007878,0.00178910,-0.00143440,0.00010937,0.37
 078518,0.00128557,-0.00188379,-0.00310530,-0.03495487,0.00190502,-0.00
 052492,0.05755747,-0.06194645,-0.01882106,-0.00039069,-0.00005918,0.00
 004386,0.03545855,-0.00847217,0.00187691,-0.00029515,0.00030918,-0.000
 33478,-0.00158878,-0.00215135,-0.00499293,-0.00077836,-0.00010649,-0.0
 0090422,-0.00086400,0.00048869,0.00285200,-0.05571496,0.07304200,-0.00
 190892,-0.00375949,0.00371270,-0.01327482,0.00477546,-0.00038382,-0.00
 674608,-0.02331434,-0.03542483,0.00121233,-0.00119942,-0.00018203,0.01
 828583,0.00177957,0.00124587,-0.00006446,0.00004811,0.00022229,0.00124
 944,-0.00461076,-0.00041855,-0.00097896,-0.00062065,0.00167514,0.00026
 485,0.00192630,-0.00476021,0.00133777,0.02336029,0.03323322,-0.0018219
 4,0.00009509,-0.00032053,0.00210031,0.00363789,0.00094550,0.01004191,0
 .00342254,0.00422952,0.00169534,0.00020409,0.00011597,-0.18314805,-0.0
 6036000,-0.11168613,-0.00353151,0.00488224,0.00050575,-0.01723968,-0.0
 1668318,-0.02958092,0.00002226,-0.00015551,0.00006121,0.00018811,0.000
 39259,-0.00014104,0.00144120,-0.00123097,0.00080031,0.19227389,-0.0034
 1664,0.00055073,-0.00031886,0.00765608,0.00218771,-0.00418420,-0.02126
 050,-0.01648353,-0.02377308,0.00314925,-0.00132884,0.00046491,-0.07068
 785,-0.09900862,-0.07702464,0.00373478,0.00387368,-0.00366103,0.017328
 84,0.00782188,0.00916316,-0.00022990,-0.00018629,0.00059492,-0.0003208
 6,-0.00131648,0.00023202,0.00070612,-0.00060782,0.00246231,0.06703214,
 0.10657628,0.00153546,0.00051248,0.00062421,0.00073971,-0.00442706,-0.
 00128037,-0.01690246,-0.00243334,-0.00300943,-0.00150046,0.00021663,-0
 .00117448,-0.11067570,-0.08344015,-0.17499297,-0.00220221,-0.00441768,
 0.00592877,-0.00785124,-0.00328307,0.00266154,-0.00006543,-0.00005666,
 -0.00022571,-0.00054206,-0.00121256,0.00002787,0.00100398,0.00082530,-
 0.00043413,0.13405816,0.09268307,0.17369067,0.00252760,-0.00024436,0.0
 0033184,-0.00333555,-0.00162796,-0.00063445,-0.00279821,0.00403874,-0.
 00269796,-0.00232624,0.00162574,-0.00218441,-0.00288620,0.02750174,0.0
 2443593,0.00611281,-0.01689986,-0.01742093,-0.08519251,0.06264272,0.04
 020538,0.00014545,0.00004084,-0.00020224,0.00010391,0.00009353,0.00042
 152,-0.00059964,0.00147748,0.00002057,0.00005924,-0.00206577,0.0021231
 1,0.08789354,0.00013209,0.00121700,-0.00002453,-0.00076837,0.00046624,
 0.00012486,0.00444775,0.00693002,-0.00185201,0.00012384,0.00027258,-0.
 00156541,0.00478783,-0.01112747,-0.01400920,0.00571175,-0.00369014,-0.
 00351061,0.06344620,-0.19837640,-0.14994425,-0.00007328,-0.00006043,-0
 .00009076,0.00011239,-0.00013557,0.00036512,0.00068988,-0.00084962,-0.
 00121981,-0.00089628,-0.00267243,0.00566465,-0.07471338,0.20746971,0.0
 0009183,-0.00123778,0.00066223,0.00018399,0.00029087,-0.00040294,-0.00
 117952,-0.00419146,0.00348928,-0.00083364,0.00200332,-0.00124150,-0.00
 843189,0.00479584,0.00358431,0.00751778,-0.01604224,-0.01205835,0.0470
 8382,-0.15205475,-0.17091943,-0.00000241,-0.00016317,0.00003028,0.0000
 0662,-0.00008933,-0.00036706,-0.00021588,-0.00035368,0.00122238,0.0021
 1796,0.00377225,-0.00272912,-0.04389130,0.16397496,0.18101225,-0.06845
 007,0.02091166,0.01148813,0.02994245,0.01287998,0.00162061,-0.01112103
 ,-0.01648355,-0.00620330,-0.47809741,-0.08070335,0.07425620,-0.0049441
 4,0.00877269,0.00425970,-0.01452046,-0.00604023,0.00123084,0.00392463,
 -0.00487202,0.00022707,0.00105298,-0.00052310,0.00421851,-0.00009513,0
 .00144891,-0.00106451,-0.00063752,0.00008482,-0.00045245,-0.00086993,-
 0.00124290,-0.00002342,0.00063117,-0.00085576,0.00008854,0.83324441,0.
 03998893,0.01186859,-0.00564906,-0.00557119,-0.00983433,-0.00355199,0.
 00172626,0.00729781,0.00318639,-0.05959361,-0.14058404,0.01385911,0.00
 340735,-0.00534593,-0.00298801,-0.03815539,-0.01029754,0.00661538,-0.0
 0366258,-0.00087345,0.00367069,0.00151070,0.00118246,-0.00010198,0.001
 62259,-0.00063472,0.00057263,0.00000045,0.00017677,0.00030025,-0.00006
 746,0.00066823,-0.00065525,-0.00076924,-0.00065305,-0.00054299,0.01414
 546,0.69796642,0.01419527,-0.00362556,0.01538539,-0.00491169,-0.002231
 94,0.00238569,0.00231782,0.00290442,0.00123820,0.07432816,0.01968334,-
 0.08649961,0.00152582,-0.00194399,-0.00005928,0.00518305,-0.00016846,0
 .00872305,-0.00212963,0.00049704,0.00207495,-0.00042811,0.00182906,-0.
 00233505,-0.00023716,0.00014964,-0.00037908,0.00010055,0.00012292,-0.0
 0005961,0.00032229,0.00022800,0.00002142,0.00065978,0.00109491,-0.0001
 8271,-0.12530037,-0.05679825,0.12483557,-0.00627884,-0.00376874,0.0011
 6773,0.00218299,0.00263811,0.00173382,-0.00087804,-0.00180168,-0.00066
 822,-0.02008892,0.03208486,0.00108060,-0.00049932,0.00094665,0.0006005
 6,0.00037719,0.00314817,-0.00139903,0.00036185,-0.00078055,-0.00051054
 ,0.00026187,0.00041811,-0.00003375,-0.00063661,0.00025381,-0.00024754,
 -0.00009823,0.00000053,-0.00016853,-0.00006010,-0.00015262,-0.00002182
 ,0.00001511,-0.00015305,-0.00009652,-0.18813996,0.13829852,0.01422060,
 0.20321994,0.00015046,0.00062025,0.00096639,-0.00092305,-0.00019646,-0
 .00029973,0.00038334,0.00068535,0.00035752,-0.00784576,0.00396461,0.00
 151454,0.00029935,-0.00062403,-0.00022291,-0.00130185,0.00074327,-0.00
 071617,-0.00050141,0.00030137,0.00009337,-0.00023060,0.00041136,0.0003
 1523,0.00000630,0.00001043,-0.00008098,0.00006515,0.00000786,0.0000817
 4,0.00001622,0.00009338,-0.00000625,0.00003705,0.00012043,0.00003304,0
 .14875720,-0.23475348,-0.00520057,-0.15887552,0.24779367,0.00030155,0.
 00201933,0.00905205,0.00236044,-0.00060096,0.00194764,-0.00119194,-0.0
 0058350,0.00021695,0.00539791,-0.00771860,0.00260160,0.00054713,-0.000
 65712,0.00001675,0.00002894,0.00118344,-0.00796313,-0.00187941,-0.0007
 4647,-0.00090578,0.00001656,0.00074210,-0.00050646,0.00015125,0.000338
 07,-0.00086324,0.00004814,0.00012158,-0.00019861,-0.00008280,0.0000575
 7,-0.00013707,-0.00015674,-0.00024255,-0.00000779,0.01266580,-0.003678
 81,-0.02584588,-0.01534430,0.00475659,0.02192825,0.00179800,-0.0011138
 4,-0.00233502,-0.00117113,-0.00014553,-0.00039844,0.00047279,0.0010934
 5,0.00057445,-0.00897595,-0.03867020,0.00583942,0.00060316,-0.00083598
 ,-0.00059568,-0.00450799,0.00147510,0.00300420,-0.00033514,0.00005348,
 0.00036808,-0.00001351,0.00089277,0.00072344,-0.00009979,0.00001417,0.
 00012616,-0.00005155,0.00001425,0.00010696,-0.00004698,0.00008878,-0.0
 0014326,-0.00019577,-0.00020134,-0.00014156,-0.10342152,-0.08896936,0.
 02085015,0.00936657,0.02098862,-0.00372803,0.10669642,0.00143872,0.000
 77065,-0.00127584,-0.00094478,0.00039544,-0.00024378,0.00045080,0.0006
 7255,0.00012094,0.00268925,-0.00542519,0.00012693,0.00017655,-0.000573
 84,-0.00040208,-0.00071702,0.00079018,0.00122145,-0.00033207,0.0003540
 2,0.00065791,-0.00045836,0.00085800,0.00054412,-0.00021862,0.00002577,
 0.00015138,-0.00008394,0.00000373,0.00010233,-0.00011266,0.00004628,-0
 .00010162,-0.00006031,-0.00005965,-0.00011651,-0.09776451,-0.31267218,
 0.04475173,-0.01033201,-0.02060330,0.00375832,0.10693041,0.33500269,-0
 .00004555,-0.00006171,-0.00649193,-0.00104003,0.00029090,-0.00039358,0
 .00101681,-0.00073325,-0.00118777,0.00038681,0.00870478,0.00308343,-0.
 00177442,0.00174223,0.00055404,0.00060233,-0.00301901,0.01148254,0.003
 33181,0.00206372,0.00075361,-0.00000532,-0.00130975,-0.00002618,0.0000
 0833,-0.00018398,0.00036390,-0.00000320,-0.00009412,0.00004630,0.00000
 124,-0.00020820,0.00032621,0.00028168,0.00029147,-0.00003913,0.0232100
 7,0.04486511,-0.03853481,-0.00061916,-0.00156460,0.00003931,-0.0244679
 7,-0.04923650,0.03022756,-0.00023391,0.00277099,-0.00188759,0.00185766
 ,0.00108268,0.00055377,0.00091534,-0.00185342,0.00198406,-0.00908315,-
 0.00375970,0.01347231,0.00176374,-0.00115132,-0.00302740,-0.11238136,-
 0.00329296,0.10993573,0.00850035,0.00092111,-0.02653204,0.00001240,0.0
 0000808,-0.00032363,0.00007333,0.00008484,0.00008000,-0.00001346,-0.00
 013549,0.00030590,0.00026081,-0.00056546,0.00068119,-0.00151224,-0.000
 82770,-0.00224480,0.00012989,-0.00201226,-0.00069716,0.00037828,-0.000
 18690,0.00087477,-0.00064578,-0.00063796,-0.00086063,0.12343107,-0.001
 11045,-0.00008836,0.00014526,-0.00075317,-0.00076936,0.00037681,0.0001
 7044,0.00166143,0.00005239,-0.02169472,-0.00788852,0.03526187,0.001780
 19,-0.00035478,0.00107024,-0.00087000,-0.05697443,0.01601825,0.0016216
 7,0.00079246,-0.01242286,-0.00010979,0.00042378,-0.00077708,0.00003630
 ,0.00006499,-0.00008067,-0.00001807,0.00011135,-0.00019109,0.00001349,
 -0.00034463,0.00023949,-0.00081274,-0.00013260,-0.00102221,0.00086459,
 -0.00459268,-0.00081959,-0.00016062,0.00043937,0.00088056,-0.00151239,
 -0.00048344,-0.00148751,0.01212812,0.06641158,0.00252725,-0.00093110,0
 .00274508,-0.00410853,-0.00101150,-0.00208559,0.00026363,0.00535737,0.
 00219594,0.00369331,0.00154858,-0.00330230,0.00422578,-0.00556311,-0.0
 0041360,0.11151792,0.01837199,-0.26601682,0.00248898,-0.00332342,-0.02
 851297,-0.00005358,0.00002961,0.00008665,-0.00004260,-0.00011719,0.000
 36507,-0.00004492,-0.00011508,0.00038895,0.00002379,-0.00050413,0.0005
 7421,-0.00191863,0.00065790,-0.00337704,-0.00001756,0.00093453,-0.0001
 7781,0.00005522,-0.00008172,0.00000769,0.00032090,0.00007052,-0.000167
 93,-0.11893053,-0.01387008,0.29578901,0.00079707,-0.00250633,-0.000206
 73,-0.00152165,-0.00111127,-0.00040790,0.00080591,0.00110260,0.0000859
 0,0.00701053,-0.00966601,0.00036156,-0.00116129,-0.00271098,-0.0047343
 9,-0.22169210,0.13559604,0.00493340,-0.02083654,0.01708277,0.00308641,
 0.00038461,-0.00021699,-0.00004449,-0.00007985,0.00013271,0.00010604,-
 0.00015635,0.00007458,0.00001025,-0.00136489,0.00024652,-0.00021355,0.
 00135753,-0.00096258,-0.00005303,0.00137164,-0.00189917,0.00000063,0.0
 0051622,-0.00083859,-0.00000926,0.00052819,-0.00002350,-0.00002281,-0.
 01345297,0.01042716,-0.00000042,0.24749395,-0.00488255,-0.00481524,0.0
 0106055,-0.00146428,-0.00021582,-0.00050444,-0.00025740,0.00087586,0.0
 0020205,0.03352816,-0.02686470,-0.00237148,-0.00022708,-0.00016993,-0.
 00126324,0.13257151,-0.16332406,-0.00087517,-0.01154827,0.00579680,-0.
 00148505,0.00104536,-0.00174670,-0.00007440,0.00010639,-0.00006921,-0.
 00001900,0.00012850,0.00003229,0.00007921,-0.00019025,0.00013048,-0.00
 010798,-0.00026424,0.00128138,0.00094382,0.00062013,0.00108113,-0.0004
 7269,-0.00176397,0.00098593,0.00037043,-0.00010239,0.00089829,-0.00005
 960,-0.00257266,0.00172385,-0.00145316,-0.14472697,0.18439964,0.001882
 77,0.00031064,0.00143945,-0.00068218,-0.00055753,-0.00049390,0.0002488
 4,0.00012845,0.00045129,-0.00484422,0.00331113,-0.00162140,-0.00188153
 ,-0.00291416,-0.00468654,0.00821815,-0.00379110,-0.06081335,-0.0256291
 6,0.02057647,0.00003657,-0.00024171,0.00008267,0.00052855,0.00000243,-
 0.00003479,0.00008481,0.00000234,0.00004321,0.00011497,-0.00137026,0.0
 0001593,0.00012839,0.00062686,0.00028525,0.00132435,-0.00020385,-0.000
 03777,-0.00059044,0.00025089,0.00005452,0.00061773,-0.00010381,-0.0001
 2932,-0.00003559,0.02661604,-0.02337376,0.00190146,-0.00289162,0.00603
 014,0.06161365\\-0.00003250,0.00001882,0.00001085,0.00001871,0.0000161
 3,-0.00001001,0.00000555,0.00001578,0.00000487,-0.00000222,-0.00001321
 ,-0.00000518,-0.00000661,0.00000524,-0.00002846,0.00000852,-0.00002791
 ,0.00003788,0.00001762,-0.00000468,0.00000635,0.00001076,-0.00000943,0
 .00000275,-0.00000980,-0.00000125,-0.00000161,-0.00000872,-0.00001093,
 0.00000879,-0.00000940,0.00000130,0.00000178,-0.00000099,-0.00000363,-
 0.00000093,0.00000539,0.00000574,-0.00000690,0.00000309,-0.00000084,0.
 00000398,-0.00000129,-0.00000037,-0.00000449,0.00000269,0.00000030,-0.
 00001223,-0.00000079,0.00000893,-0.00000744\\\@


      LET US REMEMBER, PLEASE, THAT THE SEARCH FOR THE CONSTITUTION
      OF THE WORLD IS ONE OF THE GREATEST AND NOBLEST PROBLEMS PRESENTED 
      BY NATURE.

                                                  -- GALILEO
 Job cpu time:       0 days  0 hours  0 minutes  4.8 seconds.
 Elapsed time:       0 days  0 hours  0 minutes  4.7 seconds.
 File lengths (MBytes):  RWF=     25 Int=      0 D2E=      0 Chk=      2 Scr=      1
 Normal termination of Gaussian 16 at Mon Jun  9 21:59:39 2025.
