 Entering Gaussian System, Link 0=g16
 Input=/home/gaussian/Documents/jeeva/Aromaticity/cycloheptatrienyl_anion/anion.com
 Output=/home/gaussian/Documents/jeeva/Aromaticity/cycloheptatrienyl_anion/anion.log
 Initial command:
 /usr/local/g16/l1.exe "/home/gaussian/tmp/Gau-97364.inp" -scrdir="/home/gaussian/tmp/"
 Entering Link 1 = /usr/local/g16/l1.exe PID=     97367.
  
 Copyright (c) 1988-2017, Gaussian, Inc.  All Rights Reserved.
  
 This is part of the Gaussian(R) 16 program.  It is based on
 the Gaussian(R) 09 system (copyright 2009, Gaussian, Inc.),
 the Gaussian(R) 03 system (copyright 2003, Gaussian, Inc.),
 the Gaussian(R) 98 system (copyright 1998, Gaussian, Inc.),
 the Gaussian(R) 94 system (copyright 1995, Gaussian, Inc.),
 the Gaussian 92(TM) system (copyright 1992, Gaussian, Inc.),
 the Gaussian 90(TM) system (copyright 1990, Gaussian, Inc.),
 the Gaussian 88(TM) system (copyright 1988, Gaussian, Inc.),
 the Gaussian 86(TM) system (copyright 1986, Carnegie Mellon
 University), and the Gaussian 82(TM) system (copyright 1983,
 Carnegie Mellon University). Gaussian is a federally registered
 trademark of Gaussian, Inc.
  
 This software contains proprietary and confidential information,
 including trade secrets, belonging to Gaussian, Inc.
  
 This software is provided under written license and may be
 used, copied, transmitted, or stored only in accord with that
 written license.
  
 The following legend is applicable only to US Government
 contracts under FAR:
  
                    RESTRICTED RIGHTS LEGEND
  
 Use, reproduction and disclosure by the US Government is
 subject to restrictions as set forth in subparagraphs (a)
 and (c) of the Commercial Computer Software - Restricted
 Rights clause in FAR 52.227-19.
  
 Gaussian, Inc.
 340 Quinnipiac St., Bldg. 40, Wallingford CT 06492
  
  
 ---------------------------------------------------------------
 Warning -- This program may not be used in any manner that
 competes with the business of Gaussian, Inc. or will provide
 assistance to any competitor of Gaussian, Inc.  The licensee
 of this program is prohibited from giving any competitor of
 Gaussian, Inc. access to this program.  By using this program,
 the user acknowledges that Gaussian, Inc. is engaged in the
 business of creating and licensing software in the field of
 computational chemistry and represents and warrants to the
 licensee that it is not a competitor of Gaussian, Inc. and that
 it will not use this program in any manner prohibited above.
 ---------------------------------------------------------------
  

 Cite this work as:
 Gaussian 16, Revision B.01,
 M. J. Frisch, G. W. Trucks, H. B. Schlegel, G. E. Scuseria, 
 M. A. Robb, J. R. Cheeseman, G. Scalmani, V. Barone, 
 G. A. Petersson, H. Nakatsuji, X. Li, M. Caricato, A. V. Marenich, 
 J. Bloino, B. G. Janesko, R. Gomperts, B. Mennucci, H. P. Hratchian, 
 J. V. Ortiz, A. F. Izmaylov, J. L. Sonnenberg, D. Williams-Young, 
 F. Ding, F. Lipparini, F. Egidi, J. Goings, B. Peng, A. Petrone, 
 T. Henderson, D. Ranasinghe, V. G. Zakrzewski, J. Gao, N. Rega, 
 G. Zheng, W. Liang, M. Hada, M. Ehara, K. Toyota, R. Fukuda, 
 J. Hasegawa, M. Ishida, T. Nakajima, Y. Honda, O. Kitao, H. Nakai, 
 T. Vreven, K. Throssell, J. A. Montgomery, Jr., J. E. Peralta, 
 F. Ogliaro, M. J. Bearpark, J. J. Heyd, E. N. Brothers, K. N. Kudin, 
 V. N. Staroverov, T. A. Keith, R. Kobayashi, J. Normand, 
 K. Raghavachari, A. P. Rendell, J. C. Burant, S. S. Iyengar, 
 J. Tomasi, M. Cossi, J. M. Millam, M. Klene, C. Adamo, R. Cammi, 
 J. W. Ochterski, R. L. Martin, K. Morokuma, O. Farkas, 
 J. B. Foresman, and D. J. Fox, Gaussian, Inc., Wallingford CT, 2016.
 
 ******************************************
 Gaussian 16:  EM64L-G16RevB.01 20-Dec-2017
                 9-Jun-2025 
 ******************************************
 %chk=anion.chk
 -------------------------------------
 # opt freq hf/3-21g geom=connectivity
 -------------------------------------
 1/18=20,19=15,38=1,57=2/1,3;
 2/9=110,12=2,17=6,18=5,40=1/2;
 3/5=5,11=9,25=1,30=1,71=1/1,2,3;
 4//1;
 5/5=2,38=5/2;
 6/7=2,8=2,9=2,10=2,28=1/1;
 7//1,2,3,16;
 1/18=20,19=15/3(2);
 2/9=110/2;
 99//99;
 2/9=110/2;
 3/5=5,11=9,25=1,30=1,71=1/1,2,3;
 4/5=5,16=3,69=1/1;
 5/5=2,38=5/2;
 7//1,2,3,16;
 1/18=20,19=15/3(-5);
 2/9=110/2;
 6/7=2,8=2,9=2,10=2,19=2,28=1/1;
 99/9=1/99;
 ------------
 Optimisation
 ------------
 Symbolic Z-matrix:
 Charge = -1 Multiplicity = 1
 C                    -1.91774   3.06448   1.83389 
 C                    -0.50554   3.05203   1.84333 
 C                     0.42218   4.14525   1.95144 
 C                    -2.8274    4.17391   1.9297 
 C                     0.07988   5.36323   2.39384 
 C                    -2.46963   5.38572   2.37682 
 C                    -1.19953   5.4303    3.15691 
 H                    -2.37946   2.10689   1.7125 
 H                    -0.0592    2.08643   1.72799 
 H                     1.43857   3.97813   1.66173 
 H                     0.68719   6.22674   2.21941 
 H                    -3.05924   6.25978   2.19442 
 H                    -1.20633   5.46949   4.22617 
 C                    -4.28857   3.95915   1.49331 
 H                    -4.38696   4.18628   0.45233 
 H                    -4.56553   2.93975   1.66368 
 H                    -4.92845   4.6022    2.06071 
 

 GradGradGradGradGradGradGradGradGradGradGradGradGradGradGradGradGradGrad
 Berny optimization.
 Initialization pass.
                           ----------------------------
                           !    Initial Parameters    !
                           ! (Angstroms and Degrees)  !
 --------------------------                            --------------------------
 ! Name  Definition              Value          Derivative Info.                !
 --------------------------------------------------------------------------------
 ! R1    R(1,2)                  1.4123         estimate D2E/DX2                !
 ! R2    R(1,4)                  1.4379         estimate D2E/DX2                !
 ! R3    R(1,8)                  1.07           estimate D2E/DX2                !
 ! R4    R(2,3)                  1.4379         estimate D2E/DX2                !
 ! R5    R(2,9)                  1.07           estimate D2E/DX2                !
 ! R6    R(3,5)                  1.3403         estimate D2E/DX2                !
 ! R7    R(3,10)                 1.07           estimate D2E/DX2                !
 ! R8    R(4,6)                  1.3403         estimate D2E/DX2                !
 ! R9    R(4,14)                 1.54           estimate D2E/DX2                !
 ! R10   R(5,7)                  1.4912         estimate D2E/DX2                !
 ! R11   R(5,11)                 1.07           estimate D2E/DX2                !
 ! R12   R(6,7)                  1.4912         estimate D2E/DX2                !
 ! R13   R(6,12)                 1.07           estimate D2E/DX2                !
 ! R14   R(7,13)                 1.07           estimate D2E/DX2                !
 ! R15   R(14,15)                1.07           estimate D2E/DX2                !
 ! R16   R(14,16)                1.07           estimate D2E/DX2                !
 ! R17   R(14,17)                1.07           estimate D2E/DX2                !
 ! A1    A(2,1,4)              129.7142         estimate D2E/DX2                !
 ! A2    A(2,1,8)              115.1096         estimate D2E/DX2                !
 ! A3    A(4,1,8)              115.1561         estimate D2E/DX2                !
 ! A4    A(1,2,3)              129.7144         estimate D2E/DX2                !
 ! A5    A(1,2,9)              115.1096         estimate D2E/DX2                !
 ! A6    A(3,2,9)              115.156          estimate D2E/DX2                !
 ! A7    A(2,3,5)              123.4331         estimate D2E/DX2                !
 ! A8    A(2,3,10)             118.2795         estimate D2E/DX2                !
 ! A9    A(5,3,10)             118.2873         estimate D2E/DX2                !
 ! A10   A(1,4,6)              123.4332         estimate D2E/DX2                !
 ! A11   A(1,4,14)             118.2797         estimate D2E/DX2                !
 ! A12   A(6,4,14)             118.287          estimate D2E/DX2                !
 ! A13   A(3,5,7)              115.3977         estimate D2E/DX2                !
 ! A14   A(3,5,11)             122.3177         estimate D2E/DX2                !
 ! A15   A(7,5,11)             122.2823         estimate D2E/DX2                !
 ! A16   A(4,6,7)              115.398          estimate D2E/DX2                !
 ! A17   A(4,6,12)             122.3175         estimate D2E/DX2                !
 ! A18   A(7,6,12)             122.2822         estimate D2E/DX2                !
 ! A19   A(5,7,6)              117.4983         estimate D2E/DX2                !
 ! A20   A(5,7,13)             121.2288         estimate D2E/DX2                !
 ! A21   A(6,7,13)             121.2288         estimate D2E/DX2                !
 ! A22   A(4,14,15)            109.4712         estimate D2E/DX2                !
 ! A23   A(4,14,16)            109.4712         estimate D2E/DX2                !
 ! A24   A(4,14,17)            109.4712         estimate D2E/DX2                !
 ! A25   A(15,14,16)           109.4712         estimate D2E/DX2                !
 ! A26   A(15,14,17)           109.4712         estimate D2E/DX2                !
 ! A27   A(16,14,17)           109.4712         estimate D2E/DX2                !
 ! D1    D(4,1,2,3)              0.0012         estimate D2E/DX2                !
 ! D2    D(4,1,2,9)           -178.2709         estimate D2E/DX2                !
 ! D3    D(8,1,2,3)            178.2731         estimate D2E/DX2                !
 ! D4    D(8,1,2,9)              0.001          estimate D2E/DX2                !
 ! D5    D(2,1,4,6)            -17.2082         estimate D2E/DX2                !
 ! D6    D(2,1,4,14)           162.6762         estimate D2E/DX2                !
 ! D7    D(8,1,4,6)            164.5205         estimate D2E/DX2                !
 ! D8    D(8,1,4,14)           -15.595          estimate D2E/DX2                !
 ! D9    D(1,2,3,5)             17.2051         estimate D2E/DX2                !
 ! D10   D(1,2,3,10)          -162.6716         estimate D2E/DX2                !
 ! D11   D(9,2,3,5)           -164.5235         estimate D2E/DX2                !
 ! D12   D(9,2,3,10)            15.5998         estimate D2E/DX2                !
 ! D13   D(2,3,5,7)             17.9437         estimate D2E/DX2                !
 ! D14   D(2,3,5,11)          -162.5965         estimate D2E/DX2                !
 ! D15   D(10,3,5,7)          -162.1796         estimate D2E/DX2                !
 ! D16   D(10,3,5,11)           17.2802         estimate D2E/DX2                !
 ! D17   D(1,4,6,7)            -17.9404         estimate D2E/DX2                !
 ! D18   D(1,4,6,12)           162.5996         estimate D2E/DX2                !
 ! D19   D(14,4,6,7)           162.1751         estimate D2E/DX2                !
 ! D20   D(14,4,6,12)          -17.2849         estimate D2E/DX2                !
 ! D21   D(1,4,14,15)          -89.9453         estimate D2E/DX2                !
 ! D22   D(1,4,14,16)           30.0547         estimate D2E/DX2                !
 ! D23   D(1,4,14,17)          150.0547         estimate D2E/DX2                !
 ! D24   D(6,4,14,15)           89.9453         estimate D2E/DX2                !
 ! D25   D(6,4,14,16)         -150.0547         estimate D2E/DX2                !
 ! D26   D(6,4,14,17)          -30.0547         estimate D2E/DX2                !
 ! D27   D(3,5,7,6)            -76.9922         estimate D2E/DX2                !
 ! D28   D(3,5,7,13)           100.6221         estimate D2E/DX2                !
 ! D29   D(11,5,7,6)           103.5477         estimate D2E/DX2                !
 ! D30   D(11,5,7,13)          -78.838          estimate D2E/DX2                !
 ! D31   D(4,6,7,5)             76.9905         estimate D2E/DX2                !
 ! D32   D(4,6,7,13)          -100.6238         estimate D2E/DX2                !
 ! D33   D(12,6,7,5)          -103.5493         estimate D2E/DX2                !
 ! D34   D(12,6,7,13)           78.8364         estimate D2E/DX2                !
 --------------------------------------------------------------------------------
 Trust Radius=3.00D-01 FncErr=1.00D-07 GrdErr=1.00D-07 EigMax=2.50D+02 EigMin=1.00D-04
 Number of steps in this run=     88 maximum allowed number of steps=    102.
 GradGradGradGradGradGradGradGradGradGradGradGradGradGradGradGradGradGrad

                          Input orientation:                          
 ---------------------------------------------------------------------
 Center     Atomic      Atomic             Coordinates (Angstroms)
 Number     Number       Type             X           Y           Z
 ---------------------------------------------------------------------
      1          6           0       -1.917740    3.064482    1.833893
      2          6           0       -0.505543    3.052028    1.843330
      3          6           0        0.422179    4.145247    1.951441
      4          6           0       -2.827395    4.173911    1.929703
      5          6           0        0.079882    5.363234    2.393843
      6          6           0       -2.469626    5.385716    2.376815
      7          6           0       -1.199534    5.430304    3.156910
      8          1           0       -2.379459    2.106891    1.712503
      9          1           0       -0.059205    2.086430    1.727991
     10          1           0        1.438566    3.978134    1.661732
     11          1           0        0.687192    6.226744    2.219414
     12          1           0       -3.059242    6.259777    2.194415
     13          1           0       -1.206330    5.469489    4.226171
     14          6           0       -4.288572    3.959150    1.493308
     15          1           0       -4.386965    4.186279    0.452332
     16          1           0       -4.565533    2.939754    1.663677
     17          1           0       -4.928452    4.602199    2.060707
 ---------------------------------------------------------------------
                    Distance matrix (angstroms):
                    1          2          3          4          5
     1  C    0.000000
     2  C    1.412284   0.000000
     3  C    2.580134   1.437875   0.000000
     4  C    1.437874   2.580132   3.249773   0.000000
     5  C    3.096498   2.446929   1.340291   3.175244   0.000000
     6  C    2.446930   3.096503   3.175255   1.340291   2.549664
     7  C    2.804159   2.804160   2.394677   2.394681   1.491199
     8  H    1.070000   2.102846   3.472918   2.126121   4.137191
     9  H    2.102845   1.070000   2.126121   3.472916   3.346663
    10  H    3.482698   2.161066   1.070000   4.278850   2.073768
    11  H    4.115118   3.412166   2.115342   4.080488   1.070000
    12  H    3.412171   4.115130   4.080510   2.115340   3.270728
    13  H    3.466000   3.465999   3.095166   3.095181   2.241217
    14  C    2.556809   3.905982   4.736633   1.540000   4.676089
    15  H    3.043716   4.276312   5.037546   2.148263   5.010729
    16  H    2.656188   4.065514   5.139386   2.148263   5.290205
    17  H    3.388274   4.691739   5.371219   2.148263   5.076767
                    6          7          8          9         10
     6  C    0.000000
     7  C    1.491198   0.000000
     8  H    3.346659   3.810985   0.000000
     9  H    4.137196   3.810991   2.320396   0.000000
    10  H    4.215044   3.362131   4.252227   2.413763   0.000000
    11  H    3.270719   2.252320   5.160861   4.235659   2.435533
    12  H    1.070000   2.252318   4.235658   5.160872   5.071481
    13  H    2.241217   1.070000   4.359108   4.359115   3.974413
    14  C    2.474720   3.804475   2.669011   4.631383   5.729645
    15  H    2.969591   4.361429   3.153088   4.976563   5.953384
    16  H    3.299109   4.445508   2.339864   4.586860   6.093228
    17  H    2.599933   3.973947   3.584017   5.490844   6.409958
                   11         12         13         14         15
    11  H    0.000000
    12  H    3.746663   0.000000
    13  H    2.861107   2.861097   0.000000
    14  C    5.516107   2.701053   4.387469   0.000000
    15  H    5.747446   3.016139   5.099503   1.070000   0.000000
    16  H    6.221275   3.684175   4.924447   1.070000   1.747303
    17  H    5.848059   2.501877   4.392679   1.070000   1.747303
                   16         17
    16  H    0.000000
    17  H    1.747303   0.000000
 Stoichiometry    C8H9(1-)
 Framework group  C1[X(C8H9)]
 Deg. of freedom    45
 Full point group                 C1      NOp   1
 Largest Abelian subgroup         C1      NOp   1
 Largest concise Abelian subgroup C1      NOp   1
                         Standard orientation:                         
 ---------------------------------------------------------------------
 Center     Atomic      Atomic             Coordinates (Angstroms)
 Number     Number       Type             X           Y           Z
 ---------------------------------------------------------------------
      1          6           0        0.445631    1.192695    0.226962
      2          6           0       -0.940504    1.439099    0.115334
      3          6           0       -2.004016    0.549595   -0.265728
      4          6           0        1.185589   -0.017396   -0.008887
      5          6           0       -1.884292   -0.785330   -0.270203
      6          6           0        0.618163   -1.230176   -0.068667
      7          6           0       -0.745980   -1.328051    0.525645
      8          1           0        1.036539    2.040303    0.504970
      9          1           0       -1.240892    2.445152    0.321549
     10          1           0       -2.939329    0.975812   -0.563098
     11          1           0       -2.563953   -1.418843   -0.800884
     12          1           0        1.113334   -2.072537   -0.504708
     13          1           0       -0.897334   -1.736755    1.502862
     14          6           0        2.709476    0.085836   -0.205636
     15          1           0        2.926598    0.221316   -1.244580
     16          1           0        3.084993    0.920274    0.348981
     17          1           0        3.175642   -0.812355    0.141988
 ---------------------------------------------------------------------
 Rotational constants (GHZ):           3.9965692           1.8033139           1.3201329
 Standard basis: 3-21G (6D, 7F)
 There are    90 symmetry adapted cartesian basis functions of A   symmetry.
 There are    90 symmetry adapted basis functions of A   symmetry.
    90 basis functions,   147 primitive gaussians,    90 cartesian basis functions
    29 alpha electrons       29 beta electrons
       nuclear repulsion energy       331.6671588269 Hartrees.
 NAtoms=   17 NActive=   17 NUniq=   17 SFac= 1.00D+00 NAtFMM=   60 NAOKFM=F Big=F
 Integral buffers will be    131072 words long.
 Raffenetti 1 integral format.
 Two-electron integral symmetry is turned on.
 One-electron integrals computed using PRISM.
 NBasis=    90 RedAO= T EigKep=  3.74D-03  NBF=    90
 NBsUse=    90 1.00D-06 EigRej= -1.00D+00 NBFU=    90
 ExpMin= 1.83D-01 ExpMax= 1.72D+02 ExpMxC= 1.72D+02 IAcc=3 IRadAn=         5 AccDes= 0.00D+00
 Harris functional with IExCor=  205 and IRadAn=       5 diagonalized for initial guess.
 HarFok:  IExCor=  205 AccDes= 0.00D+00 IRadAn=         5 IDoV= 1 UseB2=F ITyADJ=14
 ICtDFT=  3500011 ScaDFX=  1.000000  1.000000  1.000000  1.000000
 FoFCou: FMM=F IPFlag=           0 FMFlag=      100000 FMFlg1=           0
         NFxFlg=           0 DoJE=T BraDBF=F KetDBF=T FulRan=T
         wScrn=  0.000000 ICntrl=       500 IOpCl=  0 I1Cent=   200000004 NGrid=           0
         NMat0=    1 NMatS0=      1 NMatT0=    0 NMatD0=    1 NMtDS0=    0 NMtDT0=    0
 Petite list used in FoFCou.
 Keep R1 ints in memory in canonical form, NReq=9231365.
 Requested convergence on RMS density matrix=1.00D-08 within 128 cycles.
 Requested convergence on MAX density matrix=1.00D-06.
 Requested convergence on             energy=1.00D-06.
 No special actions if energy rises.
 SCF Done:  E(RHF) =  -306.253763592     A.U. after   18 cycles
            NFock= 18  Conv=0.43D-08     -V/T= 2.0010

 **********************************************************************

            Population analysis using the SCF Density.

 **********************************************************************

 Orbital symmetries:
       Occupied  (A) (A) (A) (A) (A) (A) (A) (A) (A) (A) (A) (A)
                 (A) (A) (A) (A) (A) (A) (A) (A) (A) (A) (A) (A)
                 (A) (A) (A) (A) (A)
       Virtual   (A) (A) (A) (A) (A) (A) (A) (A) (A) (A) (A) (A)
                 (A) (A) (A) (A) (A) (A) (A) (A) (A) (A) (A) (A)
                 (A) (A) (A) (A) (A) (A) (A) (A) (A) (A) (A) (A)
                 (A) (A) (A) (A) (A) (A) (A) (A) (A) (A) (A) (A)
                 (A) (A) (A) (A) (A) (A) (A) (A) (A) (A) (A) (A)
                 (A)
 The electronic state is 1-A.
 Alpha  occ. eigenvalues --  -11.00059 -10.99708 -10.99446 -10.97634 -10.97486
 Alpha  occ. eigenvalues --  -10.97064 -10.96211 -10.82734  -0.92628  -0.87075
 Alpha  occ. eigenvalues --   -0.79959  -0.77318  -0.66671  -0.62750  -0.52339
 Alpha  occ. eigenvalues --   -0.49119  -0.46924  -0.42628  -0.41435  -0.41008
 Alpha  occ. eigenvalues --   -0.38177  -0.34895  -0.31741  -0.29252  -0.27898
 Alpha  occ. eigenvalues --   -0.24411  -0.14513  -0.08660   0.02115
 Alpha virt. eigenvalues --    0.29125   0.38453   0.42837   0.45231   0.47039
 Alpha virt. eigenvalues --    0.49085   0.49947   0.51817   0.53234   0.54616
 Alpha virt. eigenvalues --    0.55804   0.58470   0.60982   0.66917   0.71389
 Alpha virt. eigenvalues --    0.76111   0.80762   0.83696   0.89081   0.91127
 Alpha virt. eigenvalues --    1.07686   1.10813   1.12884   1.14233   1.15482
 Alpha virt. eigenvalues --    1.19691   1.22639   1.23817   1.25450   1.28648
 Alpha virt. eigenvalues --    1.29962   1.30296   1.31515   1.33658   1.36983
 Alpha virt. eigenvalues --    1.39728   1.41151   1.44571   1.46559   1.49879
 Alpha virt. eigenvalues --    1.51189   1.51917   1.53703   1.54796   1.57642
 Alpha virt. eigenvalues --    1.60026   1.62993   1.65606   1.68399   1.77812
 Alpha virt. eigenvalues --    1.80147   1.86538   1.90468   1.93008   1.99608
 Alpha virt. eigenvalues --    2.04034   2.23705   2.33635   2.40326   2.43418
 Alpha virt. eigenvalues --    2.72222
          Condensed to atoms (all electrons):
               1          2          3          4          5          6
     1  C    5.110735   0.581507  -0.063602   0.393217  -0.003280  -0.072642
     2  C    0.581507   5.115210   0.383477  -0.067751  -0.091860  -0.003323
     3  C   -0.063602   0.383477   5.512504   0.001111   0.434040   0.006556
     4  C    0.393217  -0.067751   0.001111   5.616497   0.006657   0.420512
     5  C   -0.003280  -0.091860   0.434040   0.006657   5.198261  -0.098777
     6  C   -0.072642  -0.003323   0.006556   0.420512  -0.098777   5.208038
     7  C   -0.018117  -0.010967  -0.198136  -0.195229   0.447183   0.456325
     8  H    0.392587  -0.051275   0.002498  -0.056335  -0.000027   0.003370
     9  H   -0.054334   0.386849  -0.052598   0.002898   0.003785   0.000003
    10  H    0.001668  -0.051411   0.352108  -0.000092  -0.035790  -0.000008
    11  H   -0.000076   0.002999  -0.110964  -0.000570   0.378997   0.000687
    12  H    0.001962  -0.000025  -0.000582  -0.121506   0.000747   0.397022
    13  H    0.001076   0.001091   0.000374  -0.000009  -0.050170  -0.049442
    14  C   -0.080531   0.001417  -0.000074   0.232257  -0.000013  -0.063982
    15  H    0.003138   0.000022   0.000008  -0.051256   0.000006  -0.001391
    16  H   -0.000811   0.000104  -0.000000  -0.051079   0.000001   0.002725
    17  H    0.002236  -0.000037  -0.000001  -0.051144  -0.000009  -0.001956
               7          8          9         10         11         12
     1  C   -0.018117   0.392587  -0.054334   0.001668  -0.000076   0.001962
     2  C   -0.010967  -0.051275   0.386849  -0.051411   0.002999  -0.000025
     3  C   -0.198136   0.002498  -0.052598   0.352108  -0.110964  -0.000582
     4  C   -0.195229  -0.056335   0.002898  -0.000092  -0.000570  -0.121506
     5  C    0.447183  -0.000027   0.003785  -0.035790   0.378997   0.000747
     6  C    0.456325   0.003370   0.000003  -0.000008   0.000687   0.397022
     7  C    5.675784   0.001377   0.001510   0.007430  -0.047220  -0.044381
     8  H    0.001377   0.563682  -0.001356  -0.000027   0.000004  -0.000028
     9  H    0.001510  -0.001356   0.568943   0.001536  -0.000015   0.000004
    10  H    0.007430  -0.000027   0.001536   0.592812   0.005487   0.000011
    11  H   -0.047220   0.000004  -0.000015   0.005487   0.655582   0.000684
    12  H   -0.044381  -0.000028   0.000004   0.000011   0.000684   0.644654
    13  H    0.424611   0.000018   0.000015  -0.000088   0.000727   0.000675
    14  C    0.006782   0.000638  -0.000042   0.000002   0.000008   0.006316
    15  H   -0.000157  -0.000331  -0.000000  -0.000000  -0.000000  -0.000318
    16  H   -0.000040   0.002672   0.000001   0.000000   0.000000   0.000085
    17  H    0.000231   0.000074   0.000001  -0.000000   0.000000   0.001930
              13         14         15         16         17
     1  C    0.001076  -0.080531   0.003138  -0.000811   0.002236
     2  C    0.001091   0.001417   0.000022   0.000104  -0.000037
     3  C    0.000374  -0.000074   0.000008  -0.000000  -0.000001
     4  C   -0.000009   0.232257  -0.051256  -0.051079  -0.051144
     5  C   -0.050170  -0.000013   0.000006   0.000001  -0.000009
     6  C   -0.049442  -0.063982  -0.001391   0.002725  -0.001956
     7  C    0.424611   0.006782  -0.000157  -0.000040   0.000231
     8  H    0.000018   0.000638  -0.000331   0.002672   0.000074
     9  H    0.000015  -0.000042  -0.000000   0.000001   0.000001
    10  H   -0.000088   0.000002  -0.000000   0.000000  -0.000000
    11  H    0.000727   0.000008  -0.000000   0.000000   0.000000
    12  H    0.000675   0.006316  -0.000318   0.000085   0.001930
    13  H    0.592722  -0.000078  -0.000003   0.000007   0.000006
    14  C   -0.000078   5.363269   0.361027   0.380766   0.390571
    15  H   -0.000003   0.361027   0.580586  -0.031396  -0.031224
    16  H    0.000007   0.380766  -0.031396   0.560381  -0.028323
    17  H    0.000006   0.390571  -0.031224  -0.028323   0.535907
 Mulliken charges:
               1
     1  C   -0.194733
     2  C   -0.196026
     3  C   -0.266720
     4  C   -0.078180
     5  C   -0.189753
     6  C   -0.203717
     7  C   -0.506988
     8  H    0.142460
     9  H    0.142802
    10  H    0.126361
    11  H    0.113672
    12  H    0.112751
    13  H    0.078469
    14  C   -0.598333
    15  H    0.171289
    16  H    0.164907
    17  H    0.181737
 Sum of Mulliken charges =  -1.00000
 Mulliken charges with hydrogens summed into heavy atoms:
               1
     1  C   -0.052273
     2  C   -0.053225
     3  C   -0.140359
     4  C   -0.078180
     5  C   -0.076080
     6  C   -0.090967
     7  C   -0.428519
    14  C   -0.080398
 Electronic spatial extent (au):  <R**2>=            971.1088
 Charge=             -1.0000 electrons
 Dipole moment (field-independent basis, Debye):
    X=              2.4085    Y=              2.7316    Z=             -1.3069  Tot=              3.8692
 Quadrupole moment (field-independent basis, Debye-Ang):
   XX=            -60.8062   YY=            -60.0994   ZZ=            -56.9016
   XY=             -2.3251   XZ=              1.4083   YZ=              2.3877
 Traceless Quadrupole moment (field-independent basis, Debye-Ang):
   XX=             -1.5371   YY=             -0.8304   ZZ=              2.3675
   XY=             -2.3251   XZ=              1.4083   YZ=              2.3877
 Octapole moment (field-independent basis, Debye-Ang**2):
  XXX=              3.0693  YYY=             16.8173  ZZZ=             -1.9929  XYY=              7.8947
  XXY=              2.4617  XXZ=              0.0076  XZZ=              3.8452  YZZ=             -0.2116
  YYZ=             -1.2735  XYZ=             -1.0471
 Hexadecapole moment (field-independent basis, Debye-Ang**3):
 XXXX=           -955.5095 YYYY=           -453.2661 ZZZZ=           -106.3952 XXXY=             -6.3780
 XXXZ=              9.7748 YYYX=            -15.8669 YYYZ=             11.8983 ZZZX=             -1.7673
 ZZZY=              1.1370 XXYY=           -222.0172 XXZZ=           -172.9730 YYZZ=            -91.3056
 XXYZ=              3.4512 YYXZ=              3.2561 ZZXY=              1.3031
 N-N= 3.316671588269D+02 E-N=-1.387435965190D+03  KE= 3.059466344486D+02
 Calling FoFJK, ICntrl=      2127 FMM=F ISym2X=0 I1Cent= 0 IOpClX= 0 NMat=1 NMatS=1 NMatT=0.
 ***** Axes restored to original set *****
 -------------------------------------------------------------------
 Center     Atomic                   Forces (Hartrees/Bohr)
 Number     Number              X              Y              Z
 -------------------------------------------------------------------
      1        6           0.064713261   -0.001777180    0.010114933
      2        6          -0.061865746   -0.001043111    0.010627323
      3        6           0.007638006    0.013288509   -0.008515737
      4        6          -0.024096107    0.014723377   -0.008359682
      5        6          -0.047124119   -0.025261206    0.023876504
      6        6           0.053416246   -0.029184198    0.024595824
      7        6           0.000562721    0.044425916   -0.014604023
      8        1          -0.002054289   -0.008254916   -0.004087260
      9        1           0.001689012   -0.008287202   -0.004256023
     10        1           0.007098026   -0.005703482   -0.017598363
     11        1           0.020452553    0.004728783    0.000969468
     12        1          -0.020681117    0.005293238    0.001193788
     13        1           0.000243506    0.002967244    0.003556799
     14        6           0.022907761    0.000508701   -0.007591876
     15        1          -0.008984064   -0.000619153   -0.014235725
     16        1          -0.006628250   -0.010821212    0.000613265
     17        1          -0.007287400    0.005015892    0.003700783
 -------------------------------------------------------------------
 Cartesian Forces:  Max     0.064713261 RMS     0.020744434

 GradGradGradGradGradGradGradGradGradGradGradGradGradGradGradGradGradGrad
 Berny optimization.
 FormGI is forming the generalized inverse of G from B-inverse, IUseBI=4.
 Internal  Forces:  Max     0.055692537 RMS     0.010939873
 Search for a local minimum.
 Step number   1 out of a maximum of   88
 All quantities printed in internal units (Hartrees-Bohrs-Radians)
 Mixed Optimization -- RFO/linear search
 Second derivative matrix not updated -- first step.
 ITU=  0
     Eigenvalues ---    0.00237   0.00884   0.01409   0.01665   0.01697
     Eigenvalues ---    0.01749   0.01784   0.01920   0.02159   0.02342
     Eigenvalues ---    0.02384   0.04248   0.07243   0.07243   0.15980
     Eigenvalues ---    0.15992   0.15994   0.15999   0.15999   0.16000
     Eigenvalues ---    0.16000   0.16000   0.16000   0.16437   0.18878
     Eigenvalues ---    0.22000   0.23418   0.25000   0.28519   0.31961
     Eigenvalues ---    0.32219   0.37230   0.37230   0.37230   0.37230
     Eigenvalues ---    0.37230   0.37230   0.37230   0.37230   0.37230
     Eigenvalues ---    0.38575   0.38893   0.42721   0.54293   0.56907
 RFO step:  Lambda=-4.44234749D-02 EMin= 2.36824116D-03
 Linear search not attempted -- first point.
 Maximum step size (   0.300) exceeded in Quadratic search.
    -- Step size scaled by   0.994
 Iteration  1 RMS(Cart)=  0.09912030 RMS(Int)=  0.00540999
 Iteration  2 RMS(Cart)=  0.00683356 RMS(Int)=  0.00271551
 Iteration  3 RMS(Cart)=  0.00002694 RMS(Int)=  0.00271543
 Iteration  4 RMS(Cart)=  0.00000022 RMS(Int)=  0.00271543
 Variable       Old X    -DE/DX   Delta X   Delta X   Delta X     New X
                                 (Linear)    (Quad)   (Total)
    R1        2.66883  -0.05569   0.00000  -0.12963  -0.13112   2.53771
    R2        2.71719   0.01175   0.00000   0.01617   0.01518   2.73237
    R3        2.02201   0.00874   0.00000   0.02083   0.02083   2.04284
    R4        2.71719   0.00950   0.00000   0.01128   0.01040   2.72758
    R5        2.02201   0.00864   0.00000   0.02060   0.02060   2.04261
    R6        2.53278   0.01059   0.00000   0.02005   0.02048   2.55327
    R7        2.02201   0.01240   0.00000   0.02956   0.02956   2.05157
    R8        2.53278   0.01243   0.00000   0.02303   0.02334   2.55612
    R9        2.91018   0.00578   0.00000   0.01742   0.01742   2.92760
   R10        2.81796  -0.01595   0.00000  -0.02636  -0.02508   2.79288
   R11        2.02201   0.01527   0.00000   0.03640   0.03640   2.05841
   R12        2.81796  -0.01540   0.00000  -0.02443  -0.02320   2.79476
   R13        2.02201   0.01552   0.00000   0.03700   0.03700   2.05900
   R14        2.02201   0.00366   0.00000   0.00873   0.00873   2.03074
   R15        2.02201   0.01454   0.00000   0.03468   0.03468   2.05668
   R16        2.02201   0.01212   0.00000   0.02890   0.02890   2.05091
   R17        2.02201   0.00933   0.00000   0.02226   0.02226   2.04426
    A1        2.26394   0.00158   0.00000  -0.00669  -0.00816   2.25578
    A2        2.00904  -0.00283   0.00000  -0.00709  -0.00787   2.00117
    A3        2.00985   0.00105   0.00000   0.01145   0.01015   2.02001
    A4        2.26394   0.00059   0.00000  -0.01011  -0.01146   2.25248
    A5        2.00904  -0.00260   0.00000  -0.00662  -0.00745   2.00159
    A6        2.00985   0.00180   0.00000   0.01443   0.01316   2.02301
    A7        2.15431  -0.00118   0.00000   0.01323   0.01186   2.16617
    A8        2.06437  -0.00739   0.00000  -0.04537  -0.04484   2.01953
    A9        2.06450   0.00856   0.00000   0.03207   0.03219   2.09670
   A10        2.15432  -0.00559   0.00000  -0.00296  -0.00442   2.14990
   A11        2.06437  -0.01038   0.00000  -0.04300  -0.04249   2.02188
   A12        2.06450   0.01597   0.00000   0.04588   0.04590   2.11040
   A13        2.01407   0.01249   0.00000   0.10164   0.10300   2.11707
   A14        2.13485  -0.01663   0.00000  -0.10135  -0.10235   2.03250
   A15        2.13423   0.00416   0.00000   0.00009  -0.00123   2.13300
   A16        2.01407   0.01614   0.00000   0.11668   0.11839   2.13246
   A17        2.13484  -0.01829   0.00000  -0.10810  -0.10922   2.02563
   A18        2.13423   0.00218   0.00000  -0.00824  -0.00961   2.12461
   A19        2.05073  -0.01358   0.00000  -0.03526  -0.04734   2.00339
   A20        2.11584   0.00626   0.00000   0.01341   0.01342   2.12926
   A21        2.11584   0.00672   0.00000   0.01573   0.01580   2.13164
   A22        1.91063   0.01109   0.00000   0.05606   0.05561   1.96624
   A23        1.91063   0.00280   0.00000   0.01194   0.01168   1.92231
   A24        1.91063   0.00051   0.00000   0.00202   0.00180   1.91244
   A25        1.91063  -0.00662   0.00000  -0.03122  -0.03170   1.87893
   A26        1.91063  -0.00464   0.00000  -0.01920  -0.01958   1.89105
   A27        1.91063  -0.00314   0.00000  -0.01960  -0.01961   1.89103
    D1        0.00002   0.00012   0.00000   0.00143   0.00171   0.00173
    D2       -3.11141   0.00869   0.00000   0.10019   0.09629  -3.01513
    D3        3.11145  -0.00847   0.00000  -0.09864  -0.09437   3.01709
    D4        0.00002   0.00009   0.00000   0.00012   0.00021   0.00023
    D5       -0.30034  -0.00834   0.00000  -0.08240  -0.07800  -0.37834
    D6        2.83924  -0.01176   0.00000  -0.12998  -0.12382   2.71542
    D7        2.87142   0.00032   0.00000   0.01796   0.01919   2.89062
    D8       -0.27218  -0.00311   0.00000  -0.02961  -0.02662  -0.29881
    D9        0.30029   0.00802   0.00000   0.08149   0.07743   0.37772
   D10       -2.83915   0.01208   0.00000   0.12420   0.11808  -2.72107
   D11       -2.87148  -0.00061   0.00000  -0.01760  -0.01841  -2.88988
   D12        0.27227   0.00345   0.00000   0.02511   0.02224   0.29451
   D13        0.31318  -0.00147   0.00000  -0.07893  -0.08420   0.22897
   D14       -2.83784   0.00147   0.00000  -0.03374  -0.03783  -2.87567
   D15       -2.83057  -0.00555   0.00000  -0.12174  -0.12664  -2.95721
   D16        0.30160  -0.00261   0.00000  -0.07655  -0.08027   0.22132
   D17       -0.31312   0.00229   0.00000   0.07902   0.08396  -0.22916
   D18        2.83790  -0.00035   0.00000   0.03829   0.04167   2.87956
   D19        2.83049   0.00575   0.00000   0.12670   0.13212   2.96261
   D20       -0.30168   0.00310   0.00000   0.08597   0.08983  -0.21185
   D21       -1.56984   0.00270   0.00000   0.04076   0.04052  -1.52932
   D22        0.52455   0.00310   0.00000   0.04416   0.04415   0.56871
   D23        2.61895   0.00128   0.00000   0.02871   0.02836   2.64731
   D24        1.56984  -0.00058   0.00000  -0.00438  -0.00423   1.56561
   D25       -2.61895  -0.00018   0.00000  -0.00098  -0.00060  -2.61955
   D26       -0.52455  -0.00199   0.00000  -0.01643  -0.01639  -0.54094
   D27       -1.34377   0.01887   0.00000   0.21153   0.21019  -1.13358
   D28        1.75619   0.00283   0.00000   0.04635   0.04823   1.80441
   D29        1.80725   0.01606   0.00000   0.16696   0.16168   1.96892
   D30       -1.37598   0.00001   0.00000   0.00178  -0.00029  -1.37627
   D31        1.34374  -0.01824   0.00000  -0.20598  -0.20512   1.13861
   D32       -1.75622  -0.00218   0.00000  -0.04074  -0.04285  -1.79907
   D33       -1.80728  -0.01571   0.00000  -0.16587  -0.16098  -1.96826
   D34        1.37595   0.00035   0.00000  -0.00063   0.00129   1.37725
         Item               Value     Threshold  Converged?
 Maximum Force            0.055693     0.000450     NO 
 RMS     Force            0.010940     0.000300     NO 
 Maximum Displacement     0.356525     0.001800     NO 
 RMS     Displacement     0.098951     0.001200     NO 
 Predicted change in Energy=-2.986485D-02
 GradGradGradGradGradGradGradGradGradGradGradGradGradGradGradGradGradGrad

                          Input orientation:                          
 ---------------------------------------------------------------------
 Center     Atomic      Atomic             Coordinates (Angstroms)
 Number     Number       Type             X           Y           Z
 ---------------------------------------------------------------------
      1          6           0       -1.905990    3.045002    1.902598
      2          6           0       -0.563501    3.031613    1.872320
      3          6           0        0.358615    4.140529    1.930120
      4          6           0       -2.807622    4.171195    1.999523
      5          6           0        0.052079    5.355348    2.435889
      6          6           0       -2.437990    5.375051    2.493229
      7          6           0       -1.173026    5.567523    3.234869
      8          1           0       -2.370758    2.085657    1.722982
      9          1           0       -0.126155    2.063609    1.672197
     10          1           0        1.337485    3.962220    1.495792
     11          1           0        0.734767    6.168544    2.192699
     12          1           0       -3.112437    6.205180    2.285417
     13          1           0       -1.146148    5.658153    4.305322
     14          6           0       -4.233439    3.945167    1.437347
     15          1           0       -4.304764    4.166112    0.374049
     16          1           0       -4.531606    2.911352    1.579435
     17          1           0       -4.935290    4.577515    1.964400
 ---------------------------------------------------------------------
                    Distance matrix (angstroms):
                    1          2          3          4          5
     1  C    0.000000
     2  C    1.342897   0.000000
     3  C    2.515824   1.443376   0.000000
     4  C    1.445906   2.520101   3.167146   0.000000
     5  C    3.075082   2.469067   1.351130   3.125783   0.000000
     6  C    2.461909   3.064463   3.108398   1.352643   2.490806
     7  C    2.945385   2.942601   2.466700   2.479459   1.477927
     8  H    1.081025   2.045315   3.422701   2.148672   4.131495
     9  H    2.045490   1.080904   2.148284   3.426270   3.383864
    10  H    3.395130   2.149779   1.085643   4.180828   2.115859
    11  H    4.100520   3.410055   2.079250   4.071270   1.089262
    12  H    3.404231   4.091363   4.054285   2.076474   3.280094
    13  H    3.630290   3.627354   3.195166   3.207531   2.241031
    14  C    2.538459   3.806866   4.622548   1.549220   4.620753
    15  H    3.057362   4.186759   4.916209   2.209892   4.964629
    16  H    2.648803   3.980716   5.054515   2.176189   5.264674
    17  H    3.395449   4.637977   5.312021   2.166403   5.069633
                    6          7          8          9         10
     6  C    0.000000
     7  C    1.478922   0.000000
     8  H    3.379040   3.980422   0.000000
     9  H    4.121204   3.976845   2.245286   0.000000
    10  H    4.152732   3.450225   4.162231   2.403764   0.000000
    11  H    3.284256   2.255442   5.151202   4.226416   2.390986
    12  H    1.089577   2.251528   4.223374   5.142619   5.045412
    13  H    2.243365   1.074620   4.575028   4.571049   4.115590
    14  C    2.526478   3.902467   2.647441   4.523847   5.571256
    15  H    3.072019   4.467216   3.144565   4.854532   5.756288
    16  H    3.359771   4.590835   2.317680   4.487234   5.963015
    17  H    2.674366   4.092535   3.583917   5.434417   6.320276
                   11         12         13         14         15
    11  H    0.000000
    12  H    3.848495   0.000000
    13  H    2.874285   2.871506   0.000000
    14  C    5.495182   2.661490   4.548733   0.000000
    15  H    5.719623   3.038548   5.259083   1.088351   0.000000
    16  H    6.222546   3.655374   5.141664   1.085295   1.754661
    17  H    5.893475   2.464780   4.583154   1.081778   1.759554
                   16         17
    16  H    0.000000
    17  H    1.757059   0.000000
 Stoichiometry    C8H9(1-)
 Framework group  C1[X(C8H9)]
 Deg. of freedom    45
 Full point group                 C1      NOp   1
 Largest Abelian subgroup         C1      NOp   1
 Largest concise Abelian subgroup C1      NOp   1
                         Standard orientation:                         
 ---------------------------------------------------------------------
 Center     Atomic      Atomic             Coordinates (Angstroms)
 Number     Number       Type             X           Y           Z
 ---------------------------------------------------------------------
      1          6           0        0.477096    1.177014    0.308308
      2          6           0       -0.822782    1.482792    0.166222
      3          6           0       -1.907356    0.650924   -0.297490
      4          6           0        1.158858   -0.068686    0.036139
      5          6           0       -1.885835   -0.699957   -0.283016
      6          6           0        0.525827   -1.262904   -0.016381
      7          6           0       -0.857476   -1.443395    0.474643
      8          1           0        1.112371    2.014346    0.561120
      9          1           0       -1.061016    2.525352    0.323275
     10          1           0       -2.760918    1.177962   -0.712560
     11          1           0       -2.640887   -1.203764   -0.885152
     12          1           0        1.083513   -2.080656   -0.471844
     13          1           0       -1.072819   -1.912909    1.416976
     14          6           0        2.674842    0.042458   -0.263067
     15          1           0        2.882434    0.217696   -1.316967
     16          1           0        3.107345    0.864199    0.298670
     17          1           0        3.170939   -0.871699    0.034335
 ---------------------------------------------------------------------
 Rotational constants (GHZ):           3.7706067           1.8601210           1.3298813
 Standard basis: 3-21G (6D, 7F)
 There are    90 symmetry adapted cartesian basis functions of A   symmetry.
 There are    90 symmetry adapted basis functions of A   symmetry.
    90 basis functions,   147 primitive gaussians,    90 cartesian basis functions
    29 alpha electrons       29 beta electrons
       nuclear repulsion energy       331.4002877584 Hartrees.
 NAtoms=   17 NActive=   17 NUniq=   17 SFac= 1.00D+00 NAtFMM=   60 NAOKFM=F Big=F
 Integral buffers will be    131072 words long.
 Raffenetti 1 integral format.
 Two-electron integral symmetry is turned on.
 One-electron integrals computed using PRISM.
 NBasis=    90 RedAO= T EigKep=  3.94D-03  NBF=    90
 NBsUse=    90 1.00D-06 EigRej= -1.00D+00 NBFU=    90
 Initial guess from the checkpoint file:  "anion.chk"
 B after Tr=    -0.000000    0.000000   -0.000000
         Rot=    0.999690   -0.014616    0.002471    0.020025 Ang=  -2.86 deg.
 ExpMin= 1.83D-01 ExpMax= 1.72D+02 ExpMxC= 1.72D+02 IAcc=3 IRadAn=         5 AccDes= 0.00D+00
 Harris functional with IExCor=  205 and IRadAn=       5 diagonalized for initial guess.
 HarFok:  IExCor=  205 AccDes= 0.00D+00 IRadAn=         5 IDoV= 1 UseB2=F ITyADJ=14
 ICtDFT=  3500011 ScaDFX=  1.000000  1.000000  1.000000  1.000000
 FoFCou: FMM=F IPFlag=           0 FMFlag=      100000 FMFlg1=           0
         NFxFlg=           0 DoJE=T BraDBF=F KetDBF=T FulRan=T
         wScrn=  0.000000 ICntrl=       500 IOpCl=  0 I1Cent=   200000004 NGrid=           0
         NMat0=    1 NMatS0=      1 NMatT0=    0 NMatD0=    1 NMtDS0=    0 NMtDT0=    0
 Petite list used in FoFCou.
 Keep R1 ints in memory in canonical form, NReq=9231173.
 Requested convergence on RMS density matrix=1.00D-08 within 128 cycles.
 Requested convergence on MAX density matrix=1.00D-06.
 Requested convergence on             energy=1.00D-06.
 No special actions if energy rises.
 SCF Done:  E(RHF) =  -306.285178025     A.U. after   16 cycles
            NFock= 16  Conv=0.37D-08     -V/T= 2.0014
 Calling FoFJK, ICntrl=      2127 FMM=F ISym2X=0 I1Cent= 0 IOpClX= 0 NMat=1 NMatS=1 NMatT=0.
 ***** Axes restored to original set *****
 -------------------------------------------------------------------
 Center     Atomic                   Forces (Hartrees/Bohr)
 Number     Number              X              Y              Z
 -------------------------------------------------------------------
      1        6           0.006208657   -0.008013169    0.002094690
      2        6          -0.004253887   -0.006684959    0.003131566
      3        6           0.008019312    0.014087901   -0.004299829
      4        6          -0.014159401    0.014926188   -0.005151928
      5        6          -0.015737233   -0.023875357    0.010256465
      6        6           0.016435019   -0.025543685    0.009291342
      7        6          -0.000808347    0.023764750   -0.019239310
      8        1          -0.003011185    0.000084931    0.001438386
      9        1           0.003088048    0.000003972    0.001138152
     10        1          -0.004268061    0.003027880   -0.008562592
     11        1           0.009050356   -0.001047251    0.007960061
     12        1          -0.008874819   -0.000168381    0.008089546
     13        1          -0.000078694    0.005463177   -0.001222452
     14        6           0.012625418    0.004551283   -0.003781043
     15        1          -0.001070665   -0.001087480   -0.001586843
     16        1          -0.000686572   -0.000901810    0.000796568
     17        1          -0.002477946    0.001412009   -0.000352782
 -------------------------------------------------------------------
 Cartesian Forces:  Max     0.025543685 RMS     0.009322396

 GradGradGradGradGradGradGradGradGradGradGradGradGradGradGradGradGradGrad
 Berny optimization.
 Using GEDIIS/GDIIS optimizer.
 FormGI is forming the generalized inverse of G from B-inverse, IUseBI=4.
 Internal  Forces:  Max     0.010670055 RMS     0.004477999
 Search for a local minimum.
 Step number   2 out of a maximum of   88
 All quantities printed in internal units (Hartrees-Bohrs-Radians)
 Mixed Optimization -- RFO/linear search
 Update second derivatives using D2CorX and points    1    2
 DE= -3.14D-02 DEPred=-2.99D-02 R= 1.05D+00
 TightC=F SS=  1.41D+00  RLast= 6.03D-01 DXNew= 5.0454D-01 1.8085D+00
 Trust test= 1.05D+00 RLast= 6.03D-01 DXMaxT set to 5.05D-01
 ITU=  1  0
 Use linear search instead of GDIIS.
     Eigenvalues ---    0.00236   0.00910   0.01420   0.01634   0.01679
     Eigenvalues ---    0.01702   0.01795   0.01888   0.02155   0.02336
     Eigenvalues ---    0.02407   0.03578   0.06801   0.07148   0.15131
     Eigenvalues ---    0.15536   0.15891   0.15987   0.15990   0.15994
     Eigenvalues ---    0.15997   0.16000   0.16572   0.16877   0.19347
     Eigenvalues ---    0.22002   0.23497   0.25105   0.28845   0.30774
     Eigenvalues ---    0.32270   0.36909   0.37230   0.37230   0.37230
     Eigenvalues ---    0.37230   0.37230   0.37230   0.37230   0.37436
     Eigenvalues ---    0.38398   0.39156   0.46745   0.54064   0.59499
 RFO step:  Lambda=-1.66565993D-02 EMin= 2.36444518D-03
 Quartic linear search produced a step of  0.54578.
 Iteration  1 RMS(Cart)=  0.09498739 RMS(Int)=  0.01630247
 Iteration  2 RMS(Cart)=  0.01873698 RMS(Int)=  0.00472648
 Iteration  3 RMS(Cart)=  0.00044891 RMS(Int)=  0.00471652
 Iteration  4 RMS(Cart)=  0.00000329 RMS(Int)=  0.00471652
 Iteration  5 RMS(Cart)=  0.00000003 RMS(Int)=  0.00471652
 Variable       Old X    -DE/DX   Delta X   Delta X   Delta X     New X
                                 (Linear)    (Quad)   (Total)
    R1        2.53771   0.00183  -0.07156   0.04265  -0.02946   2.50825
    R2        2.73237   0.00901   0.00828   0.01882   0.02676   2.75913
    R3        2.04284   0.00098   0.01137  -0.00395   0.00742   2.05026
    R4        2.72758   0.00694   0.00567   0.01348   0.01883   2.74641
    R5        2.04261   0.00104   0.01125  -0.00367   0.00758   2.05019
    R6        2.55327  -0.00612   0.01118  -0.01976  -0.00859   2.54468
    R7        2.05157  -0.00092   0.01613  -0.01399   0.00215   2.05372
    R8        2.55612  -0.00704   0.01274  -0.02303  -0.01003   2.54610
    R9        2.92760  -0.00651   0.00951  -0.03701  -0.02750   2.90010
   R10        2.79288  -0.00837  -0.01369  -0.01441  -0.02782   2.76506
   R11        2.05841   0.00311   0.01987  -0.00182   0.01805   2.07645
   R12        2.79476  -0.00903  -0.01266  -0.01799  -0.03002   2.76474
   R13        2.05900   0.00382   0.02019   0.00054   0.02073   2.07973
   R14        2.03074  -0.00076   0.00476  -0.00590  -0.00113   2.02960
   R15        2.05668   0.00140   0.01893  -0.00741   0.01151   2.06820
   R16        2.05091   0.00115   0.01578  -0.00623   0.00954   2.06045
   R17        2.04426   0.00226   0.01215   0.00018   0.01233   2.05660
    A1        2.25578  -0.00368  -0.00445  -0.01853  -0.02369   2.23209
    A2        2.00117   0.00447  -0.00430   0.03663   0.03236   2.03353
    A3        2.02001  -0.00097   0.00554  -0.01465  -0.00988   2.01013
    A4        2.25248  -0.00347  -0.00625  -0.01583  -0.02303   2.22946
    A5        2.00159   0.00439  -0.00407   0.03630   0.03246   2.03405
    A6        2.02301  -0.00105   0.00718  -0.01595  -0.00938   2.01363
    A7        2.16617  -0.00085   0.00647   0.01132   0.01213   2.17831
    A8        2.01953   0.00028  -0.02447   0.00984  -0.01157   2.00796
    A9        2.09670   0.00052   0.01757  -0.02108  -0.00141   2.09529
   A10        2.14990  -0.00089  -0.00241   0.01499   0.00732   2.15722
   A11        2.02188  -0.00009  -0.02319   0.00665  -0.01380   2.00808
   A12        2.11040   0.00091   0.02505  -0.02221   0.00427   2.11467
   A13        2.11707   0.01017   0.05622   0.06445   0.11611   2.23319
   A14        2.03250  -0.00697  -0.05586  -0.02484  -0.07861   1.95389
   A15        2.13300  -0.00324  -0.00067  -0.03835  -0.03726   2.09574
   A16        2.13246   0.01008   0.06461   0.05676   0.11802   2.25048
   A17        2.02563  -0.00676  -0.05961  -0.02003  -0.07822   1.94741
   A18        2.12461  -0.00334  -0.00525  -0.03544  -0.03944   2.08518
   A19        2.00339  -0.00204  -0.02584   0.03125  -0.01717   1.98622
   A20        2.12926   0.00040   0.00733  -0.01989  -0.00977   2.11949
   A21        2.13164   0.00019   0.00862  -0.02304  -0.01139   2.12025
   A22        1.96624   0.00149   0.03035  -0.01226   0.01774   1.98399
   A23        1.92231  -0.00067   0.00637  -0.01149  -0.00523   1.91708
   A24        1.91244   0.00200   0.00098   0.01695   0.01770   1.93014
   A25        1.87893  -0.00083  -0.01730   0.00405  -0.01347   1.86546
   A26        1.89105  -0.00137  -0.01069  -0.00003  -0.01114   1.87991
   A27        1.89103  -0.00077  -0.01070   0.00320  -0.00748   1.88354
    D1        0.00173   0.00032   0.00093   0.01059   0.01145   0.01318
    D2       -3.01513   0.00173   0.05255  -0.03493   0.01104  -3.00409
    D3        3.01709  -0.00144  -0.05150   0.04496  -0.00031   3.01677
    D4        0.00023  -0.00002   0.00011  -0.00056  -0.00072  -0.00050
    D5       -0.37834  -0.00266  -0.04257  -0.03158  -0.06569  -0.44403
    D6        2.71542  -0.00425  -0.06758  -0.04577  -0.10335   2.61207
    D7        2.89062  -0.00122   0.01047  -0.06932  -0.05662   2.83399
    D8       -0.29881  -0.00280  -0.01453  -0.08351  -0.09429  -0.39309
    D9        0.37772   0.00243   0.04226   0.02949   0.06302   0.44074
   D10       -2.72107   0.00376   0.06445   0.02790   0.08187  -2.63920
   D11       -2.88988   0.00132  -0.01005   0.07857   0.06594  -2.82394
   D12        0.29451   0.00266   0.01214   0.07699   0.08479   0.37931
   D13        0.22897  -0.00486  -0.04596  -0.09547  -0.15129   0.07768
   D14       -2.87567  -0.00393  -0.02065  -0.13196  -0.15864  -3.03432
   D15       -2.95721  -0.00626  -0.06912  -0.09306  -0.17124  -3.12845
   D16        0.22132  -0.00532  -0.04381  -0.12955  -0.17859   0.04274
   D17       -0.22916   0.00426   0.04583   0.07272   0.12755  -0.10161
   D18        2.87956   0.00354   0.02274   0.11576   0.14351   3.02307
   D19        2.96261   0.00595   0.07211   0.08678   0.16789   3.13051
   D20       -0.21185   0.00523   0.04903   0.12982   0.18385  -0.02800
   D21       -1.52932   0.00207   0.02212   0.05446   0.07633  -1.45299
   D22        0.56871   0.00155   0.02410   0.04343   0.06730   0.63600
   D23        2.64731   0.00143   0.01548   0.05080   0.06580   2.71311
   D24        1.56561   0.00048  -0.00231   0.04169   0.03978   1.60539
   D25       -2.61955  -0.00005  -0.00033   0.03066   0.03075  -2.58880
   D26       -0.54094  -0.00017  -0.00894   0.03804   0.02925  -0.51170
   D27       -1.13358   0.01067   0.11472   0.15920   0.27170  -0.86187
   D28        1.80441   0.00296   0.02632   0.09466   0.12309   1.92750
   D29        1.96892   0.00963   0.08824   0.19828   0.27908   2.24800
   D30       -1.37627   0.00192  -0.00016   0.13374   0.13047  -1.24581
   D31        1.13861  -0.01043  -0.11195  -0.14605  -0.25628   0.88233
   D32       -1.79907  -0.00274  -0.02339  -0.08183  -0.10781  -1.90687
   D33       -1.96826  -0.00963  -0.08786  -0.19194  -0.27294  -2.24120
   D34        1.37725  -0.00193   0.00071  -0.12772  -0.12447   1.25278
         Item               Value     Threshold  Converged?
 Maximum Force            0.010670     0.000450     NO 
 RMS     Force            0.004478     0.000300     NO 
 Maximum Displacement     0.398259     0.001800     NO 
 RMS     Displacement     0.100283     0.001200     NO 
 Predicted change in Energy=-1.896830D-02
 GradGradGradGradGradGradGradGradGradGradGradGradGradGradGradGradGradGrad

                          Input orientation:                          
 ---------------------------------------------------------------------
 Center     Atomic      Atomic             Coordinates (Angstroms)
 Number     Number       Type             X           Y           Z
 ---------------------------------------------------------------------
      1          6           0       -1.907948    2.995609    1.930723
      2          6           0       -0.582580    2.994992    1.858983
      3          6           0        0.310431    4.141203    1.889408
      4          6           0       -2.799346    4.146546    2.042762
      5          6           0        0.021061    5.326136    2.459930
      6          6           0       -2.427783    5.328681    2.571739
      7          6           0       -1.170566    5.687904    3.228124
      8          1           0       -2.402081    2.043063    1.770695
      9          1           0       -0.108980    2.042182    1.647101
     10          1           0        1.246806    4.009291    1.353787
     11          1           0        0.800536    6.076175    2.266933
     12          1           0       -3.212058    6.091075    2.449789
     13          1           0       -1.121718    5.868903    4.285656
     14          6           0       -4.182088    3.962345    1.403000
     15          1           0       -4.197311    4.156093    0.325952
     16          1           0       -4.521778    2.936035    1.544953
     17          1           0       -4.910374    4.623534    1.868654
 ---------------------------------------------------------------------
                    Distance matrix (angstroms):
                    1          2          3          4          5
     1  C    0.000000
     2  C    1.327308   0.000000
     3  C    2.497058   1.453339   0.000000
     4  C    1.460068   2.504776   3.113561   0.000000
     5  C    3.071236   2.481885   1.346587   3.085475   0.000000
     6  C    2.474743   3.059232   3.061617   1.347337   2.451397
     7  C    3.078220   3.077670   2.525430   2.536492   1.463207
     8  H    1.084952   2.055371   3.431328   2.157888   4.138264
     9  H    2.055663   1.084914   2.154184   3.438454   3.385551
    10  H    3.363463   2.151901   1.086779   4.106687   2.111892
    11  H    4.115678   3.401929   2.031463   4.090583   1.098812
    12  H    3.398829   4.104745   4.064967   2.029087   3.322392
    13  H    3.797326   3.799839   3.282987   3.288088   2.221219
    14  C    2.526813   3.755017   4.522313   1.534666   4.543510
    15  H    3.027077   4.094463   4.771201   2.214009   4.870064
    16  H    2.642816   3.952136   4.992127   2.163313   5.214130
    17  H    3.415927   4.624073   5.243080   2.171237   5.016204
                    6          7          8          9         10
     6  C    0.000000
     7  C    1.463037   0.000000
     8  H    3.381954   4.114073   0.000000
     9  H    4.127091   4.113136   2.296430   0.000000
    10  H    4.089842   3.489208   4.165843   2.407012   0.000000
    11  H    3.327717   2.227080   5.173877   4.181448   2.303259
    12  H    1.100547   2.221720   4.183734   5.164004   5.041480
    13  H    2.221522   1.074020   4.754094   4.757247   4.202847
    14  C    2.512053   3.921466   2.643344   4.509637   5.429321
    15  H    3.090267   4.464330   3.126504   4.788372   5.542239
    16  H    3.341236   4.651502   2.311163   4.503576   5.870689
    17  H    2.674849   4.119127   3.599995   5.455809   6.209127
                   11         12         13         14         15
    11  H    0.000000
    12  H    4.016786   0.000000
    13  H    2.795221   2.790930   0.000000
    14  C    5.480985   2.562853   4.616333   0.000000
    15  H    5.694963   3.037361   5.298325   1.094442   0.000000
    16  H    6.221636   3.533888   5.260568   1.090345   1.754931
    17  H    5.906207   2.318549   4.663342   1.088304   1.762637
                   16         17
    16  H    0.000000
    17  H    1.761659   0.000000
 Stoichiometry    C8H9(1-)
 Framework group  C1[X(C8H9)]
 Deg. of freedom    45
 Full point group                 C1      NOp   1
 Largest Abelian subgroup         C1      NOp   1
 Largest concise Abelian subgroup C1      NOp   1
                         Standard orientation:                         
 ---------------------------------------------------------------------
 Center     Atomic      Atomic             Coordinates (Angstroms)
 Number     Number       Type             X           Y           Z
 ---------------------------------------------------------------------
      1          6           0        0.504981    1.194532    0.364540
      2          6           0       -0.767229    1.529022    0.187496
      3          6           0       -1.842547    0.697079   -0.326076
      4          6           0        1.144351   -0.085572    0.074127
      5          6           0       -1.870562   -0.647788   -0.264064
      6          6           0        0.483336   -1.259218    0.043613
      7          6           0       -0.910714   -1.538720    0.388551
      8          1           0        1.181145    1.994341    0.647787
      9          1           0       -1.020108    2.572697    0.341877
     10          1           0       -2.635548    1.234874   -0.838926
     11          1           0       -2.727165   -1.066384   -0.810320
     12          1           0        1.127996   -2.077736   -0.310850
     13          1           0       -1.169942   -2.090129    1.273011
     14          6           0        2.625979    0.001742   -0.316199
     15          1           0        2.789015    0.232518   -1.373538
     16          1           0        3.114358    0.789028    0.258709
     17          1           0        3.134676   -0.935673   -0.099671
 ---------------------------------------------------------------------
 Rotational constants (GHZ):           3.6075552           1.9149641           1.3358683
 Standard basis: 3-21G (6D, 7F)
 There are    90 symmetry adapted cartesian basis functions of A   symmetry.
 There are    90 symmetry adapted basis functions of A   symmetry.
    90 basis functions,   147 primitive gaussians,    90 cartesian basis functions
    29 alpha electrons       29 beta electrons
       nuclear repulsion energy       331.5905083655 Hartrees.
 NAtoms=   17 NActive=   17 NUniq=   17 SFac= 1.00D+00 NAtFMM=   60 NAOKFM=F Big=F
 Integral buffers will be    131072 words long.
 Raffenetti 1 integral format.
 Two-electron integral symmetry is turned on.
 One-electron integrals computed using PRISM.
 NBasis=    90 RedAO= T EigKep=  4.20D-03  NBF=    90
 NBsUse=    90 1.00D-06 EigRej= -1.00D+00 NBFU=    90
 Initial guess from the checkpoint file:  "anion.chk"
 B after Tr=     0.000000    0.000000    0.000000
         Rot=    0.999911   -0.008521    0.000502    0.010294 Ang=  -1.53 deg.
 ExpMin= 1.83D-01 ExpMax= 1.72D+02 ExpMxC= 1.72D+02 IAcc=3 IRadAn=         5 AccDes= 0.00D+00
 Harris functional with IExCor=  205 and IRadAn=       5 diagonalized for initial guess.
 HarFok:  IExCor=  205 AccDes= 0.00D+00 IRadAn=         5 IDoV= 1 UseB2=F ITyADJ=14
 ICtDFT=  3500011 ScaDFX=  1.000000  1.000000  1.000000  1.000000
 FoFCou: FMM=F IPFlag=           0 FMFlag=      100000 FMFlg1=           0
         NFxFlg=           0 DoJE=T BraDBF=F KetDBF=T FulRan=T
         wScrn=  0.000000 ICntrl=       500 IOpCl=  0 I1Cent=   200000004 NGrid=           0
         NMat0=    1 NMatS0=      1 NMatT0=    0 NMatD0=    1 NMtDS0=    0 NMtDT0=    0
 Petite list used in FoFCou.
 Keep R1 ints in memory in canonical form, NReq=9231174.
 Requested convergence on RMS density matrix=1.00D-08 within 128 cycles.
 Requested convergence on MAX density matrix=1.00D-06.
 Requested convergence on             energy=1.00D-06.
 No special actions if energy rises.
 SCF Done:  E(RHF) =  -306.305197528     A.U. after   15 cycles
            NFock= 15  Conv=0.72D-08     -V/T= 2.0014
 Calling FoFJK, ICntrl=      2127 FMM=F ISym2X=0 I1Cent= 0 IOpClX= 0 NMat=1 NMatS=1 NMatT=0.
 ***** Axes restored to original set *****
 -------------------------------------------------------------------
 Center     Atomic                   Forces (Hartrees/Bohr)
 Number     Number              X              Y              Z
 -------------------------------------------------------------------
      1        6          -0.004327257   -0.008920647   -0.003249937
      2        6           0.004558856   -0.007322770   -0.003762001
      3        6           0.001823702    0.005803355   -0.004914690
      4        6          -0.001943246    0.008661285   -0.005135355
      5        6           0.009104923   -0.006095046    0.008477667
      6        6          -0.011280760   -0.008177842    0.009614849
      7        6           0.001067088   -0.000903574   -0.024658775
      8        1           0.000144632    0.001487962    0.003640483
      9        1           0.000044762    0.001444134    0.003354617
     10        1          -0.004443731    0.003465658   -0.001137554
     11        1          -0.000450460   -0.000533029    0.010090650
     12        1           0.001826194   -0.000233625    0.009431978
     13        1          -0.000095094    0.009634657   -0.001320885
     14        6           0.002593279    0.001448245   -0.001493288
     15        1           0.001255977   -0.001025131    0.002045616
     16        1          -0.000737454    0.001486789    0.000343911
     17        1           0.000858589   -0.000220421   -0.001327286
 -------------------------------------------------------------------
 Cartesian Forces:  Max     0.024658775 RMS     0.005984725

 GradGradGradGradGradGradGradGradGradGradGradGradGradGradGradGradGradGrad
 Berny optimization.
 Using GEDIIS/GDIIS optimizer.
 FormGI is forming the generalized inverse of G from B-inverse, IUseBI=4.
 Internal  Forces:  Max     0.009675884 RMS     0.003470748
 Search for a local minimum.
 Step number   3 out of a maximum of   88
 All quantities printed in internal units (Hartrees-Bohrs-Radians)
 Mixed Optimization -- RFO/linear search
 Update second derivatives using D2CorX and points    2    3
 DE= -2.00D-02 DEPred=-1.90D-02 R= 1.06D+00
 TightC=F SS=  1.41D+00  RLast= 8.25D-01 DXNew= 8.4853D-01 2.4754D+00
 Trust test= 1.06D+00 RLast= 8.25D-01 DXMaxT set to 8.49D-01
 ITU=  1  1  0
 Use linear search instead of GDIIS.
     Eigenvalues ---    0.00236   0.00640   0.01437   0.01620   0.01663
     Eigenvalues ---    0.01762   0.01801   0.01860   0.02141   0.02397
     Eigenvalues ---    0.02611   0.02890   0.06644   0.07076   0.14783
     Eigenvalues ---    0.15751   0.15874   0.15981   0.15993   0.15997
     Eigenvalues ---    0.16000   0.16349   0.16866   0.20108   0.21207
     Eigenvalues ---    0.21999   0.23559   0.25084   0.28642   0.30434
     Eigenvalues ---    0.32455   0.37006   0.37230   0.37230   0.37230
     Eigenvalues ---    0.37230   0.37230   0.37230   0.37284   0.37500
     Eigenvalues ---    0.38267   0.39442   0.47193   0.53944   0.58943
 RFO step:  Lambda=-1.33888843D-02 EMin= 2.35755747D-03
 Quartic linear search produced a step of  0.70152.
 Iteration  1 RMS(Cart)=  0.08136403 RMS(Int)=  0.03366309
 Iteration  2 RMS(Cart)=  0.03850188 RMS(Int)=  0.00598036
 Iteration  3 RMS(Cart)=  0.00142113 RMS(Int)=  0.00589060
 Iteration  4 RMS(Cart)=  0.00000374 RMS(Int)=  0.00589060
 Iteration  5 RMS(Cart)=  0.00000003 RMS(Int)=  0.00589060
 Variable       Old X    -DE/DX   Delta X   Delta X   Delta X     New X
                                 (Linear)    (Quad)   (Total)
    R1        2.50825   0.00857  -0.02067   0.01149  -0.00558   2.50267
    R2        2.75913   0.00806   0.01877   0.01961   0.04053   2.79966
    R3        2.05026  -0.00191   0.00521  -0.00593  -0.00073   2.04954
    R4        2.74641   0.00754   0.01321   0.01967   0.03509   2.78150
    R5        2.05019  -0.00190   0.00532  -0.00600  -0.00068   2.04951
    R6        2.54468  -0.00154  -0.00602   0.00268  -0.00434   2.54034
    R7        2.05372  -0.00369   0.00151  -0.00943  -0.00792   2.04580
    R8        2.54610  -0.00243  -0.00703   0.00162  -0.00615   2.53995
    R9        2.90010  -0.00360  -0.01929  -0.00556  -0.02486   2.87524
   R10        2.76506  -0.00424  -0.01951  -0.00932  -0.03210   2.73296
   R11        2.07645  -0.00246   0.01266  -0.00870   0.00396   2.08041
   R12        2.76474  -0.00190  -0.02106   0.00154  -0.02236   2.74238
   R13        2.07973  -0.00251   0.01454  -0.00963   0.00491   2.08464
   R14        2.02960   0.00032  -0.00079   0.00293   0.00214   2.03174
   R15        2.06820  -0.00221   0.00808  -0.00607   0.00201   2.07020
   R16        2.06045  -0.00112   0.00669  -0.00240   0.00429   2.06474
   R17        2.05660  -0.00128   0.00865  -0.00490   0.00375   2.06035
    A1        2.23209  -0.00117  -0.01662   0.00660  -0.01019   2.22190
    A2        2.03353   0.00157   0.02270  -0.00132   0.02089   2.05442
    A3        2.01013  -0.00011  -0.00693   0.00279  -0.00495   2.00518
    A4        2.22946  -0.00032  -0.01615   0.01152  -0.00567   2.22379
    A5        2.03405   0.00096   0.02277  -0.00527   0.01677   2.05082
    A6        2.01363  -0.00034  -0.00658   0.00203  -0.00549   2.00814
    A7        2.17831  -0.00025   0.00851   0.01280   0.01143   2.18974
    A8        2.00796   0.00214  -0.00812   0.00595   0.00300   2.01096
    A9        2.09529  -0.00188  -0.00099  -0.01743  -0.01386   2.08142
   A10        2.15722  -0.00013   0.00513   0.01060   0.00651   2.16373
   A11        2.00808   0.00127  -0.00968  -0.00273  -0.00751   2.00056
   A12        2.11467  -0.00116   0.00299  -0.00713  -0.00037   2.11430
   A13        2.23319  -0.00054   0.08146  -0.00048   0.06437   2.29756
   A14        1.95389   0.00551  -0.05515   0.04169  -0.00514   1.94875
   A15        2.09574  -0.00501  -0.02614  -0.04184  -0.06003   2.03571
   A16        2.25048  -0.00047   0.08279   0.00264   0.07028   2.32076
   A17        1.94741   0.00566  -0.05487   0.04128  -0.00618   1.94123
   A18        2.08518  -0.00522  -0.02767  -0.04449  -0.06499   2.02019
   A19        1.98622   0.00968  -0.01205   0.09318   0.05309   2.03931
   A20        2.11949  -0.00467  -0.00686  -0.03116  -0.02816   2.09134
   A21        2.12025  -0.00494  -0.00799  -0.03163  -0.02932   2.09093
   A22        1.98399  -0.00191   0.01245  -0.01422  -0.00184   1.98215
   A23        1.91708   0.00141  -0.00367   0.01679   0.01309   1.93018
   A24        1.93014   0.00051   0.01242  -0.00175   0.01054   1.94067
   A25        1.86546   0.00016  -0.00945   0.00077  -0.00865   1.85681
   A26        1.87991   0.00038  -0.00782   0.00052  -0.00745   1.87246
   A27        1.88354  -0.00053  -0.00525  -0.00184  -0.00717   1.87637
    D1        0.01318   0.00036   0.00803   0.00862   0.01639   0.02956
    D2       -3.00409  -0.00276   0.00774  -0.07602  -0.07434  -3.07843
    D3        3.01677   0.00311  -0.00022   0.08338   0.08856   3.10533
    D4       -0.00050  -0.00001  -0.00051  -0.00126  -0.00217  -0.00266
    D5       -0.44403   0.00146  -0.04608   0.02038  -0.01840  -0.46244
    D6        2.61207   0.00121  -0.07250   0.02984  -0.03502   2.57705
    D7        2.83399  -0.00138  -0.03972  -0.05324  -0.09059   2.74340
    D8       -0.39309  -0.00163  -0.06614  -0.04379  -0.10721  -0.50030
    D9        0.44074  -0.00160   0.04421  -0.02980   0.00647   0.44720
   D10       -2.63920  -0.00188   0.05743  -0.05406  -0.00485  -2.64404
   D11       -2.82394   0.00156   0.04626   0.05354   0.09665  -2.72729
   D12        0.37931   0.00128   0.05948   0.02928   0.08534   0.46465
   D13        0.07768  -0.00505  -0.10613  -0.07080  -0.18485  -0.10717
   D14       -3.03432  -0.00353  -0.11129  -0.04478  -0.15977   3.08910
   D15       -3.12845  -0.00463  -0.12013  -0.04457  -0.17252   2.98222
   D16        0.04274  -0.00310  -0.12528  -0.01855  -0.14744  -0.10471
   D17       -0.10161   0.00486   0.08948   0.07187   0.16864   0.06703
   D18        3.02307   0.00317   0.10068   0.03048   0.13381  -3.12630
   D19        3.13051   0.00501   0.11778   0.06158   0.18659  -2.96609
   D20       -0.02800   0.00332   0.12898   0.02019   0.15177   0.12377
   D21       -1.45299   0.00086   0.05355   0.02858   0.08230  -1.37068
   D22        0.63600   0.00079   0.04721   0.03203   0.07931   0.71532
   D23        2.71311   0.00134   0.04616   0.03924   0.08549   2.79860
   D24        1.60539   0.00066   0.02791   0.03872   0.06659   1.67198
   D25       -2.58880   0.00060   0.02157   0.04218   0.06360  -2.52520
   D26       -0.51170   0.00115   0.02052   0.04939   0.06978  -0.44192
   D27       -0.86187   0.00622   0.19060   0.14812   0.33828  -0.52360
   D28        1.92750   0.00561   0.08635   0.23326   0.32012   2.24763
   D29        2.24800   0.00475   0.19578   0.12153   0.31315   2.56115
   D30       -1.24581   0.00414   0.09153   0.20667   0.29499  -0.95081
   D31        0.88233  -0.00587  -0.17979  -0.14652  -0.32685   0.55548
   D32       -1.90687  -0.00533  -0.07563  -0.23182  -0.30896  -2.21583
   D33       -2.24120  -0.00417  -0.19148  -0.10305  -0.29137  -2.53257
   D34        1.25278  -0.00362  -0.08732  -0.18836  -0.27348   0.97930
         Item               Value     Threshold  Converged?
 Maximum Force            0.009676     0.000450     NO 
 RMS     Force            0.003471     0.000300     NO 
 Maximum Displacement     0.535338     0.001800     NO 
 RMS     Displacement     0.106307     0.001200     NO 
 Predicted change in Energy=-1.686955D-02
 GradGradGradGradGradGradGradGradGradGradGradGradGradGradGradGradGradGrad

                          Input orientation:                          
 ---------------------------------------------------------------------
 Center     Atomic      Atomic             Coordinates (Angstroms)
 Number     Number       Type             X           Y           Z
 ---------------------------------------------------------------------
      1          6           0       -1.908932    2.953712    1.888553
      2          6           0       -0.588066    2.965895    1.793275
      3          6           0        0.302825    4.135486    1.863140
      4          6           0       -2.808029    4.119553    2.053851
      5          6           0        0.026618    5.289673    2.494553
      6          6           0       -2.438227    5.277997    2.626397
      7          6           0       -1.173840    5.765296    3.145884
      8          1           0       -2.413599    1.999847    1.780197
      9          1           0       -0.090034    2.019118    1.614859
     10          1           0        1.230370    4.042349    1.312698
     11          1           0        0.873918    5.991039    2.448074
     12          1           0       -3.275927    5.995243    2.653751
     13          1           0       -1.121229    6.152192    4.147629
     14          6           0       -4.171263    3.967175    1.395537
     15          1           0       -4.155969    4.133825    0.312892
     16          1           0       -4.560182    2.957348    1.546528
     17          1           0       -4.894212    4.664021    1.820370
 ---------------------------------------------------------------------
                    Distance matrix (angstroms):
                    1          2          3          4          5
     1  C    0.000000
     2  C    1.324355   0.000000
     3  C    2.507810   1.471907   0.000000
     4  C    1.481514   2.515366   3.116735   0.000000
     5  C    3.093591   2.503911   1.344291   3.098164   0.000000
     6  C    2.495370   3.076200   3.066148   1.344081   2.468396
     7  C    3.166425   3.163753   2.546027   2.563509   1.446219
     8  H    1.084567   2.065427   3.456413   2.173388   4.157874
     9  H    2.063193   1.084553   2.166794   3.462952   3.388805
    10  H    3.372233   2.167121   1.082589   4.106571   2.098003
    11  H    4.157244   3.423106   2.027652   4.149048   1.100905
    12  H    3.421274   4.140286   4.109895   2.024110   3.380825
    13  H    3.994267   3.997466   3.363618   3.370581   2.189556
    14  C    2.527511   3.741665   4.501605   1.521514   4.536413
    15  H    2.987399   4.035534   4.720606   2.201837   4.856919
    16  H    2.673223   3.979782   5.013690   2.162901   5.232325
    17  H    3.441178   4.628960   5.224020   2.168668   5.006050
                    6          7          8          9         10
     6  C    0.000000
     7  C    1.451207   0.000000
     8  H    3.385694   4.192935   0.000000
     9  H    4.142163   4.189574   2.329520   0.000000
    10  H    4.087937   3.479848   4.203436   2.434796   0.000000
    11  H    3.392717   2.175135   5.213774   4.171284   2.283315
    12  H    1.103146   2.171139   4.179700   5.199883   5.091064
    13  H    2.193819   1.075150   4.951456   4.955864   4.244795
    14  C    2.497336   3.909156   2.666031   4.527633   5.402791
    15  H    3.100335   4.425001   3.121330   4.764340   5.479108
    16  H    3.324789   4.680793   2.362039   4.568059   5.895964
    17  H    2.656786   4.100118   3.640450   5.487976   6.176950
                   11         12         13         14         15
    11  H    0.000000
    12  H    4.154941   0.000000
    13  H    2.625847   2.626600   0.000000
    14  C    5.536940   2.549076   4.653065   0.000000
    15  H    5.771309   3.117526   5.290431   1.095504   0.000000
    16  H    6.288522   3.479089   5.366484   1.092614   1.751954
    17  H    5.952001   2.255110   4.676130   1.090290   1.760284
                   16         17
    16  H    0.000000
    17  H    1.760482   0.000000
 Stoichiometry    C8H9(1-)
 Framework group  C1[X(C8H9)]
 Deg. of freedom    45
 Full point group                 C1      NOp   1
 Largest Abelian subgroup         C1      NOp   1
 Largest concise Abelian subgroup C1      NOp   1
                         Standard orientation:                         
 ---------------------------------------------------------------------
 Center     Atomic      Atomic             Coordinates (Angstroms)
 Number     Number       Type             X           Y           Z
 ---------------------------------------------------------------------
      1          6           0        0.526683    1.227656    0.359979
      2          6           0       -0.737962    1.570426    0.167373
      3          6           0       -1.831357    0.715869   -0.323272
      4          6           0        1.150343   -0.089713    0.094513
      5          6           0       -1.886539   -0.622428   -0.209101
      6          6           0        0.479025   -1.254100    0.104070
      7          6           0       -0.923241   -1.586038    0.275732
      8          1           0        1.212265    1.997707    0.696557
      9          1           0       -1.012374    2.601726    0.360693
     10          1           0       -2.619223    1.234486   -0.854594
     11          1           0       -2.830370   -1.025569   -0.607414
     12          1           0        1.150582   -2.103982   -0.104837
     13          1           0       -1.214805   -2.306040    1.019059
     14          6           0        2.608718   -0.025791   -0.334509
     15          1           0        2.744266    0.249122   -1.386259
     16          1           0        3.149273    0.721314    0.251529
     17          1           0        3.106367   -0.984048   -0.183439
 ---------------------------------------------------------------------
 Rotational constants (GHZ):           3.5232853           1.9301971           1.3184322
 Standard basis: 3-21G (6D, 7F)
 There are    90 symmetry adapted cartesian basis functions of A   symmetry.
 There are    90 symmetry adapted basis functions of A   symmetry.
    90 basis functions,   147 primitive gaussians,    90 cartesian basis functions
    29 alpha electrons       29 beta electrons
       nuclear repulsion energy       330.7614731028 Hartrees.
 NAtoms=   17 NActive=   17 NUniq=   17 SFac= 1.00D+00 NAtFMM=   60 NAOKFM=F Big=F
 Integral buffers will be    131072 words long.
 Raffenetti 1 integral format.
 Two-electron integral symmetry is turned on.
 One-electron integrals computed using PRISM.
 NBasis=    90 RedAO= T EigKep=  4.43D-03  NBF=    90
[...]
 5.0285567,-2.2075157,-2.2393789,-2.7310474,-0.4255943,-2.3134125,-1.79
 20295,-0.8222146,-2.5368575,-0.2997105,1.4875254,-2.2915049,-2.2107573
 ,-0.8389089,-0.8778742,-1.1364821,-0.0234841,1.1157143,0.9634033,-3.57
 59202,1.2745127,12.7902761,-2.7308978,7.4311509,5.9113543,-3.1875379,-
 0.702625,5.794685,4.4901075,7.4931117,3.1802203,1.8285554,-4.6837562,-
 4.8966673,-1.4863434,-2.6233653,-0.9911287,-9.3415487,1.5516821,-2.484
 8112,-0.0556733,1.8883634,2.0156932,-2.3865262,0.3465091,0.9886152,0.5
 347968,-2.0734439,-2.5391321,0.7635088,-3.3374849,9.7503025,-2.7748121
 ,6.3570402,3.8443775,3.2438428,1.6932835,-13.6671762,-2.18318,-7.36517
 06,-4.188748,1.6325872,-1.725544,-4.832699,2.0533604,-6.9627072,-5.632
 9751,4.7490505,0.726536,1.9744905,0.8523849,-0.1115024,-0.8917252,5.47
 10452,2.5454371,2.0290936,0.7584042,0.0122656,-0.9333655,3.2335778,-0.
 4403597,-1.1930385,0.8810991,3.2323012,3.8866483,-6.7312937,1.4928846,
 -6.4706318,0.8964742,-4.6591214,-2.815724,-0.2652119,-3.2693983,7.4348
 107,1.7086104,0.4520136,-1.6430118,-0.3155274,0.6728529,-2.6933379,-3.
 6059804,3.2445562,3.8638019,-2.9599045,-2.4786832,-1.8530314,-0.783825
 4,-0.4823976,-0.0371488,-1.4827797,-2.9683754,-7.4957881,-1.1252801,-2
 .0155166,-0.601124,0.1606508,-1.0032757,-1.1596208,-0.0333185,-1.53093
 04,-0.9123499,2.6065469,-2.8184425,2.6835387,-1.2077837,1.0096111,0.50
 15435,-1.5510039,3.8944608,-8.144201,1.3590884,-2.762832,-1.178804,-0.
 7692485,1.0304043,-1.8970257,1.4182386,-2.6952395,-2.1415636,11.441401
 1,-1.2506668,0.2250133,-1.5771928,0.1370832,0.3214942,-1.3273841,2.369
 2554,-0.4158751,0.5790089,0.0180363,0.0273386,-1.4778092,0.2753108,-0.
 0504762,1.6056048,-0.7591907,-0.8040375,8.1536886,3.5378117,2.0715041,
 2.6806549,1.30055,1.1024383,2.8662263,3.718404,3.3635396,1.2673552,1.1
 659913,0.2537087,3.3248087,1.4758938,-0.6846034,2.762118,1.0766514,2.1
 544428,-4.5469549,3.6770934,-2.6132227,1.0557126,-0.5525181,-0.2839735
 ,2.5408902,-3.6654253,5.3090581,-0.2243373,0.843585,0.4223688,0.205097
 7,0.5247376,-0.0881782,-1.4496277,0.9444863,-0.2597769,-0.4440091,1.70
 60382,0.2435028,1.1180753,-0.0594178,-0.0299054,0.1954435,0.3787452,7.
 0087935,-0.3599069,4.1370205,2.1799721,-0.1330943,-0.5645664,4.6702429
 ,0.4637529,4.3000581,4.4854551,-0.5204727,0.9735004,3.7298867,-0.66060
 15,0.599328,0.9643026,1.4139786,6.1480107,2.6280004,0.7140127,-1.67849
 27,1.8904339,-2.1684296,0.1309335,-2.5404073,3.0089744,2.4065044,6.112
 8868,-0.9360207,-0.3013597,-0.6283373,-2.9200327,-0.5486453,-0.8995377
 ,-0.6148775,-1.8747682,-1.3338464,-0.6941578,-2.2583878,-0.8354059,-1.
 866192,-0.670312,-0.2930303,-3.3769841,-1.8231814,-9.7261694,-3.457869
 3,-3.3593392,-2.0094974,1.992993,0.3167046,-0.136944,-2.9468098,-4.147
 5568,-6.3009155,0.3453715,1.7295168,-0.9551277,1.7559402,0.9436399,1.6
 41641,-1.9657683,-2.7753064,1.462686,-5.9245955,2.7871952,-0.8651138,0
 .8902983,0.1031962,-0.1567404,2.4909121,-2.7242105,2.8638774,0.3045591
 ,0.5913941,0.0901989,1.4138742,0.1690964,0.3317885,-2.0357907,1.115627
 2,0.0648444\HyperPolar=43.2441449,-33.1574249,-126.0904216,27.2625073,
 -46.8368953,-22.4374619,68.6406385,-23.782593,37.4219099,-3.3676854\Qu
 adrupole=-1.5557694,0.9014266,0.6543428,-0.5224975,0.2519444,0.3774826
 \PG=C01 [X(C8H9)]\NImag=0\\0.64062071,0.08886595,0.57841833,0.01522229
 ,0.15931539,0.13642085,-0.26565522,-0.05310103,-0.00704032,0.63886716,
 0.08000989,-0.14056319,-0.03438484,-0.04054577,0.60935225,0.06634743,-
 0.02659522,-0.07898044,-0.06272621,0.17278953,0.26463521,-0.09872491,-
 0.02851973,0.00208417,-0.16460465,-0.10082856,-0.02386427,0.70518478,-
 0.17336939,0.03907524,0.01933083,0.06512360,-0.17146887,-0.03598807,0.
 00046666,0.40371416,-0.07036817,0.01770893,0.03014192,0.04302326,-0.03
 772241,-0.07826136,-0.06419573,0.17372309,0.18172110,-0.09065184,0.044
 78079,0.00672256,-0.09643347,0.00084968,-0.00358764,0.02712317,0.06484
 685,0.03232041,0.52333892,-0.04647352,-0.16325561,-0.02826914,0.107253
 43,0.05237521,0.02116403,-0.03462800,-0.09300442,-0.04550528,0.0906000
 1,0.75257023,-0.02759884,-0.02460249,-0.06874473,0.04221152,0.01563695
 ,0.00710251,-0.01351864,-0.03104521,-0.02145592,0.09581876,0.23599101,
 0.31305976,-0.05693351,0.01492147,0.00742713,0.07618570,0.00805857,-0.
 00232793,-0.15540992,-0.03741118,-0.01288650,0.02812377,-0.03743292,-0
 .01231873,0.85322782,0.11880592,-0.02520933,-0.01323778,-0.13060505,-0
 .09314423,-0.04498434,0.08106143,-0.09065796,-0.03504264,-0.05434349,0
 .07716322,0.02623809,-0.04448250,0.45057093,0.06789306,-0.01295964,-0.
 01175885,-0.07543451,-0.04674004,-0.02001050,0.05398446,-0.03557447,-0
 .09221363,-0.03204318,0.04517957,0.01728424,-0.00609916,0.19393900,0.3
 1114204,-0.02467678,0.04232711,0.01688743,0.04570147,0.02078008,0.0062
 5751,-0.01760625,-0.03225679,-0.00780747,-0.13813384,-0.11105583,-0.06
 117162,-0.04017067,0.00730069,-0.00388194,0.60205021,0.05128141,-0.037
 43316,-0.02383114,-0.05872413,-0.02704325,-0.01042450,0.01730283,0.048
 73160,0.02990992,-0.12146649,-0.44818747,-0.17184920,0.03097783,-0.028
 97850,-0.01878147,0.00628851,0.79584205,0.01338351,-0.01153573,0.00855
 371,-0.01397358,-0.00631617,-0.00283772,0.00083994,0.01706580,0.003305
 49,-0.06222794,-0.16981755,-0.15015160,0.01196538,-0.00649488,0.002224
 72,0.10475156,0.26430028,0.26057843,0.06430956,-0.02459733,-0.00763165
 ,-0.07084625,-0.03307035,-0.01330646,0.02996533,0.07493351,0.03579707,
 -0.03968181,0.04123432,0.00977106,-0.45560200,0.09601972,0.05712765,-0
 .18849706,-0.04294152,-0.04061092,0.77257945,-0.04515808,0.00749364,0.
 01163467,0.05867995,0.02884704,0.01068789,0.01437457,-0.06039322,-0.04
 241994,-0.01708439,-0.02813507,-0.02142890,0.13723937,-0.13723821,-0.0
 4756239,-0.03845184,-0.09782801,-0.03244172,-0.11827151,0.49984640,-0.
 03083644,0.00467646,-0.00158612,0.03990964,0.01987644,0.00699163,0.012
 15954,-0.05260677,-0.01345706,-0.00401339,-0.02254335,-0.00738094,0.07
 930824,-0.04386400,-0.10071719,-0.04534362,-0.02082917,-0.08322908,-0.
 03810972,0.27432032,0.31981408,-0.12368043,-0.10935827,-0.03494734,-0.
 01718231,-0.03651935,-0.01244179,-0.00431510,0.00081944,0.00116748,0.0
 0793320,0.02185998,0.00692273,-0.00103732,0.00280924,0.00156894,-0.003
 76482,0.00244974,0.00032963,0.00133142,-0.00106836,-0.00078157,0.14020
 375,-0.10837256,-0.26464838,-0.08308985,0.00325981,-0.00280035,-0.0009
 2341,0.00018083,0.00437399,-0.00004056,-0.01775228,-0.02206116,-0.0071
 6048,0.00122494,-0.00194983,-0.00103902,0.00559434,-0.00301281,0.00021
 128,-0.00090090,0.00100924,0.00098516,0.11727390,0.28785498,-0.0414240
 1,-0.08727109,-0.04092962,0.00727401,0.00515813,-0.00042629,-0.0006048
 1,-0.00583027,0.00333870,-0.00350190,-0.00922934,-0.00685971,-0.001442
 84,0.00382648,0.00181810,0.00071919,0.00083642,0.00030122,0.00226591,-
 0.00010792,-0.00042568,0.03742053,0.09034296,0.04479960,-0.01564110,0.
 03521596,0.01504896,-0.11617047,0.08893618,0.04127587,0.01072075,-0.02
 051439,-0.00956782,-0.00561180,-0.00269126,0.00221680,-0.00152762,-0.0
 0404165,-0.00021400,0.00003408,-0.00035206,-0.00014993,-0.00057252,0.0
 0009602,0.00015560,0.00039368,0.00001639,-0.00139950,0.12773796,0.0029
 0839,0.00056248,-0.00424249,0.08454068,-0.24957432,-0.08549295,0.01754
 941,-0.01735150,-0.01304754,-0.00186139,0.00534237,-0.00276406,-0.0043
 3069,-0.00358068,-0.00281814,0.00089950,-0.00139578,-0.00014874,-0.001
 34134,0.00158428,0.00081249,0.00037975,0.00126583,0.00397288,-0.097674
 09,0.26489406,-0.00921393,-0.00631370,0.00814522,0.05301975,-0.0790398
 7,-0.09344287,0.00026320,-0.02057283,0.00022196,0.00389933,-0.00505105
 ,0.00776410,-0.00296074,0.00132175,0.01036592,-0.00246900,0.00263905,0
 .00065150,0.00292888,-0.00273425,-0.00180626,-0.00030157,0.00299094,-0
 .00535269,-0.04569474,0.10294529,0.08036634,0.00010896,-0.00410691,-0.
 00104863,-0.02365928,0.01014103,0.00581717,-0.33818932,0.04819865,0.04
 965652,0.00102811,-0.00081776,-0.00037336,-0.00716276,-0.00387991,-0.0
 0306456,0.00052793,0.00016816,0.00012195,0.00122008,0.00147147,0.00139
 085,-0.00147142,-0.00042145,0.00012945,0.00157334,-0.00122692,-0.00109
 334,0.36505825,0.00008523,-0.00239459,-0.00287456,-0.03343690,0.002498
 45,0.00576881,0.05351612,-0.06141983,-0.03160300,0.00004076,-0.0003605
 4,-0.00001696,0.03466491,-0.00799642,-0.00360170,-0.00092119,0.0004058
 5,0.00021339,-0.00201041,-0.00333835,-0.00332017,-0.00105201,0.0001893
 9,-0.00122836,-0.00030986,0.00083714,0.00284491,-0.05130862,0.07194804
 ,-0.00340256,-0.00168084,0.00398806,-0.00842214,0.00414041,-0.00095210
 ,0.04258060,-0.03320249,-0.03065268,0.00212453,-0.00266035,-0.00120589
 ,0.01965793,0.00084047,-0.00489002,-0.00035928,0.00127500,0.00008101,0
 .00033765,-0.00403844,-0.00185786,-0.00041281,-0.00088076,0.00222305,-
 0.00059085,0.00154682,-0.00449933,-0.05261070,0.03426813,0.03617777,-0
 .00019641,0.00002618,0.00012998,0.00131884,0.00134337,0.00039720,0.005
 72959,0.00542422,0.00318183,0.00010645,0.00047228,0.00008999,-0.235103
 89,-0.09659561,-0.07911652,-0.00172379,0.00404652,0.00339472,-0.030372
 74,-0.01987257,-0.01759039,0.00000678,-0.00018995,-0.00014927,-0.00001
 381,-0.00000887,-0.00009461,0.00199205,-0.00063643,0.00026558,0.259393
 50,-0.00526578,0.00133344,0.00062079,0.00887693,0.00127851,-0.00455654
 ,-0.02812423,-0.01752294,-0.01599888,0.00305639,-0.00374318,-0.0014087
 6,-0.10310226,-0.11868845,-0.05307220,0.00157569,0.00679098,-0.0050803
 6,0.01730285,0.00801779,-0.00056740,-0.00024111,-0.00008888,0.00012907
 ,-0.00041203,-0.00159178,0.00022232,0.00110672,-0.00018111,0.00151638,
 0.10543074,0.12631811,0.00698347,-0.00200629,-0.00039882,-0.00510932,-
 0.00695400,-0.00223142,-0.01550808,-0.00255564,0.00362445,-0.00374345,
 0.00535324,0.00149813,-0.07903835,-0.06331933,-0.10180099,0.00043066,-
 0.01027551,0.00697182,0.00472277,0.00265575,0.01313558,-0.00001082,-0.
 00015641,0.00009066,-0.00072225,-0.00093298,-0.00051822,0.00062812,0.0
 0066445,-0.00003722,0.08946372,0.07111968,0.08679321,0.00453020,-0.001
 55554,-0.00289672,-0.00417942,-0.00223521,-0.00079203,0.00202487,0.003
 69540,0.00141929,0.00246369,-0.00490701,-0.00296681,-0.00181953,-0.006
 33199,-0.00584748,-0.20865820,0.14196296,0.01253225,-0.02376927,0.0255
 7718,0.00607080,0.00030760,0.00018873,-0.00001852,-0.00000495,0.000043
 71,0.00047586,-0.00017937,0.00013485,0.00015172,-0.00188699,-0.0002028
 7,0.00074604,0.22862447,-0.00051952,-0.00147166,-0.00508274,-0.0044773
 3,-0.00219664,-0.00032122,0.00180628,0.00337311,0.00093711,0.02972257,
 -0.02354821,-0.00423978,-0.00015792,-0.00267898,-0.00127280,0.13607560
 ,-0.19248904,-0.02722444,-0.01319282,0.00876851,-0.00039379,0.00088458
 ,-0.00125092,-0.00140107,0.00035679,-0.00030940,0.00039080,0.00018485,
 0.00002815,0.00015419,-0.00032984,-0.00016842,0.00018874,-0.14996834,0
 .21087878,-0.00618497,-0.00193766,0.00805567,0.00148960,0.00128112,-0.
 00022111,-0.00147439,-0.00065550,0.00092149,0.01268863,-0.01817838,0.0
 0351714,-0.00118300,-0.00010487,-0.00194249,0.00967506,-0.02285021,-0.
 04253445,-0.00836956,0.00633200,0.00350836,0.00071735,-0.00142264,0.00
 114648,-0.00019576,0.00034244,-0.00072023,0.00003716,-0.00001684,0.000
 06451,-0.00020556,0.00022332,0.00016304,-0.00901870,0.03448937,0.03530
 481,0.00436049,-0.00054449,-0.00065379,-0.00517874,-0.00235460,-0.0008
 4728,-0.00202382,0.00265416,0.00023797,-0.00697153,0.00330915,-0.00062
 267,-0.00058378,0.03114905,0.02363809,0.00106807,-0.03023201,-0.021500
 53,-0.06678759,0.00315994,-0.00067129,0.00016325,-0.00015933,0.0000791
 3,0.00017833,0.00000567,0.00028514,-0.00060212,0.00125177,0.00064795,0
 .00092498,0.00023539,0.00090758,0.00078253,0.00053952,0.00050982,0.075
 44214,-0.00026929,0.00141261,0.00007123,0.00024882,0.00066824,0.000449
 34,0.00226239,0.00545084,-0.00325821,-0.00236808,0.00059669,-0.0001862
 5,-0.00216874,-0.01219937,-0.01293576,0.00401218,-0.00882091,-0.006121
 41,0.00619867,-0.22976741,-0.15306017,-0.00008513,-0.00018460,-0.00013
 286,0.00019501,-0.00024325,0.00034084,0.00038057,-0.00049603,-0.001445
 30,0.00117003,-0.00192835,0.00608181,-0.00133012,0.00139153,-0.0001810
 0,-0.00737667,0.24503521,0.00113544,-0.00172703,-0.00008645,-0.0010865
 2,-0.00023976,-0.00057568,0.00239555,-0.00334108,0.00662371,-0.0030519
 7,0.00279815,-0.00111431,-0.00397304,-0.00928675,-0.00313026,0.0033501
 9,-0.00941146,-0.00419158,0.00293064,-0.15302915,-0.14676983,-0.000053
 49,-0.00012977,-0.00001210,-0.00012156,-0.00010804,-0.00058427,0.00039
 126,-0.00130280,0.00142051,0.00058716,0.00564889,-0.00577476,-0.000623
 29,0.00023685,0.00129578,-0.00198923,0.17051661,0.15291116,-0.04335215
 ,0.00281078,-0.00537532,0.01243868,0.00835245,0.00150204,-0.00444889,-
 0.01111285,-0.00548360,-0.17202518,-0.02133215,-0.02741838,-0.00531625
 ,0.01009399,0.00539582,-0.02097500,-0.00219555,-0.00785980,0.00994670,
 -0.00200099,-0.00372171,0.00044102,-0.00129116,-0.00061561,-0.00046238
 ,0.00018797,0.00007921,-0.00011491,-0.00013640,-0.00026425,0.00006400,
 -0.00056306,0.00084106,0.00055048,0.00176309,0.00196589,0.00001313,-0.
 00039944,0.00062300,0.51678798,0.03150092,0.00683226,0.00516008,-0.001
 98861,-0.00700933,-0.00059632,0.00193440,0.00246555,-0.00030789,-0.006
 27982,-0.10041485,-0.00568382,-0.00045199,-0.00083822,0.00003515,-0.03
 916373,-0.00696565,-0.01684790,0.00475285,-0.00040573,-0.00452821,0.00
 172575,0.00025480,-0.00020862,0.00132714,-0.00042169,-0.00024673,0.000
 09824,0.00020262,-0.00002537,-0.00009633,-0.00004008,0.00042913,-0.003
 32687,-0.00161938,0.00278559,-0.00142141,-0.00086967,-0.00038425,-0.04
 104302,0.63172892,0.01141259,-0.00214434,0.00497660,-0.00569699,-0.004
 55882,-0.00065738,0.00222834,0.00520260,0.00330469,-0.02461050,-0.0045
 6273,-0.09237785,0.00132797,-0.00483245,-0.00338144,-0.01972829,-0.011
 03515,0.00103143,-0.00444892,-0.00360356,0.01300074,0.00057153,-0.0004
 9302,0.00132006,0.00028037,-0.00007069,-0.00088373,0.00006013,0.000118
 30,0.00006857,-0.00023324,0.00102316,-0.00125654,0.00144346,0.00375601
 ,-0.00917984,0.00030861,0.00007799,0.00008321,-0.03426984,0.01196535,0
 .58831014,0.00737367,-0.00220796,0.00153163,-0.00706284,-0.00344465,-0
 .00075195,0.00296810,0.00569987,0.00274723,-0.00486156,-0.00538470,-0.
 03965706,0.00194891,-0.00473402,-0.00297479,-0.00246066,-0.00092298,-0
 .00047589,-0.00324244,0.00051485,0.00376920,0.00017378,0.00069112,-0.0
 0033115,-0.00009196,-0.00004241,0.00011579,-0.00000949,0.00010957,0.00
 011842,-0.00013118,0.00039232,-0.00050498,0.00038052,0.00011943,-0.001
 38196,-0.00018918,-0.00014495,-0.00009056,-0.05551021,0.00225683,-0.00
 904872,0.06031760,0.00314543,-0.00064891,0.00050577,-0.00210725,-0.000
 83659,-0.00028169,0.00052352,0.00193517,0.00128020,-0.00327224,-0.0016
 7797,-0.00979114,0.00105133,-0.00203514,-0.00122044,-0.00046413,-0.000
 07664,-0.00012799,-0.00216482,0.00006894,0.00141728,-0.00001157,-0.000
 20456,0.00037692,-0.00005488,0.00002911,0.00004474,-0.00003335,0.00001
 326,0.00004936,-0.00010452,0.00014178,-0.00023664,0.00005348,0.0005723
 2,-0.00098251,-0.00004932,0.00000067,-0.00013118,0.00187383,-0.0637721
 9,-0.04114810,0.00243645,0.06537815,0.00563372,-0.00180745,0.00075960,
 -0.00582692,-0.00222962,-0.00057275,0.00210254,0.00513322,0.00262051,-
 0.00348464,-0.00226353,-0.00891897,0.00229791,-0.00460909,-0.00276799,
 -0.00002350,-0.00026937,0.00005686,-0.00340089,0.00103898,0.00187004,0
 .00014048,0.00094466,-0.00016173,-0.00019195,-0.00001886,0.00027485,-0
 .00003215,0.00008442,0.00012340,-0.00014983,0.00023252,-0.00036553,0.0
 0003092,0.00027709,-0.00058700,-0.00022262,-0.00009244,-0.00015507,-0.
 00786573,-0.03998225,-0.31714877,0.01036874,0.04684245,0.35203537,0.00
 503813,-0.00096080,-0.00232587,-0.00452441,-0.00184583,-0.00077545,0.0
 0217996,0.00391375,0.00117467,-0.01534235,-0.03292564,0.01727564,0.001
 29993,-0.00307799,-0.00144674,-0.00393457,0.00072330,-0.00156434,-0.00
 060370,0.00151489,-0.00138596,0.00012019,0.00086928,0.00114002,-0.0000
 3284,-0.00009772,0.00044322,-0.00000444,0.00008559,0.00015802,-0.00013
 517,0.00002047,-0.00001498,-0.00010256,-0.00080491,0.00128061,-0.00059
 544,-0.00026288,-0.00031231,-0.08707325,-0.07078834,0.04393366,-0.0000
 0368,0.00115790,0.00025938,0.09539555,0.00324843,-0.00026775,-0.001168
 72,-0.00257735,-0.00060013,-0.00048954,0.00091913,0.00250960,0.0013179
 4,-0.00446413,-0.00643390,0.00110720,0.00138720,-0.00251404,-0.0014306
 7,-0.00046460,-0.00009945,0.00014270,-0.00187541,0.00109219,-0.0005134
 5,0.00021815,0.00071192,0.00044815,-0.00011908,0.00001189,0.00017500,-
 0.00003625,0.00005417,0.00009833,-0.00012368,0.00003071,-0.00010606,-0
 .00061521,0.00000558,0.00108941,-0.00026586,-0.00011421,-0.00020980,-0
 .07114525,-0.23531653,0.10021216,0.00260565,0.00513686,-0.00202230,0.0
 8354248,0.26044786,0.00112855,0.00051151,0.00011242,0.00011622,-0.0002
 5433,-0.00014546,-0.00007978,-0.00020889,-0.00017110,-0.00628602,-0.01
 204411,0.00686756,-0.00011605,0.00028333,0.00018984,-0.00134125,0.0000
 8779,-0.00034524,0.00034982,0.00022753,-0.00123262,0.00010642,-0.00037
 457,-0.00031572,0.00006300,-0.00000737,0.00002596,-0.00001690,-0.00001
 282,-0.00001358,0.00000173,-0.00008078,0.00012111,-0.00031209,-0.00026
 951,0.00075459,-0.00011670,-0.00008506,-0.00002421,0.04316423,0.099432
 63,-0.11191789,0.01365332,0.03440049,-0.02005268,-0.04564400,-0.112938
 51,0.12137071,-0.00682939,-0.00399618,-0.00313450,0.00098519,0.0023730
 8,-0.00017623,-0.00057368,-0.00111151,-0.00041643,-0.02040394,0.032919
 62,0.01133960,-0.00011889,0.00085217,0.00051486,0.00121988,0.00163349,
 0.00104400,0.00062283,-0.00072052,-0.00030978,0.00037671,-0.00021171,0
 .00045936,-0.00050869,0.00006833,0.00031756,-0.00011562,-0.00007698,0.
 00002018,0.00002780,-0.00008618,-0.00007118,0.00093594,-0.00200205,-0.
 00035023,-0.00000072,-0.00006237,-0.00011126,-0.15096376,0.12096400,0.
 03646984,0.00040064,-0.00197984,0.00036455,0.00831865,-0.01023422,-0.0
 0467049,0.16662704,-0.00042344,0.00076458,-0.00045751,-0.00041981,0.00
 021720,-0.00020581,0.00020295,0.00018948,0.00006917,-0.00500473,0.0027
 7467,0.00120379,0.00001258,-0.00002479,-0.00014498,-0.00207557,0.00056
 020,0.00022342,-0.00007552,0.00037797,0.00013833,-0.00008474,0.0005413
 4,0.00031852,0.00002580,-0.00005876,0.00004279,0.00008147,0.00000981,0
 .00004446,0.00004449,0.00004187,0.00005006,-0.00118314,0.00071464,-0.0
 0021365,0.00009905,0.00006803,0.00010058,0.12613775,-0.22381084,-0.049
 90671,0.00205559,-0.00402427,-0.00125843,0.01893643,-0.02465478,-0.008
 66732,-0.13832915,0.24631363,-0.00011114,-0.00163080,0.00133101,-0.001
 72751,-0.00044271,0.00058572,0.00060737,0.00112569,0.00038774,-0.00702
 358,0.00963880,0.00111650,0.00036179,-0.00067301,-0.00041150,0.0000543
 6,0.00050872,-0.00046652,-0.00035333,0.00046913,0.00014222,0.00000431,
 0.00023549,-0.00055432,-0.00019225,0.00003194,-0.00000825,0.00000705,0
 .00001479,-0.00003819,0.00002751,0.00002879,-0.00001450,-0.00039470,-0
 .00022481,0.00045326,0.00000982,-0.00003936,0.00008417,0.03930297,-0.0
 5099659,-0.07529200,0.02291274,-0.03099752,-0.00701014,-0.01219555,0.0
 1428817,0.00477631,-0.04128985,0.05866329,0.07491849\\-0.00002083,0.00
 001174,0.00002613,0.00000135,-0.00001674,-0.00000280,-0.00001292,0.000
 01502,-0.00000680,0.00001027,-0.00005477,-0.00003884,0.00004261,-0.000
 00320,-0.00000114,0.00004411,0.00005354,0.00001003,-0.00005785,0.00001
 557,0.00000530,0.00000208,-0.00000001,-0.00000466,0.00000065,-0.000001
 42,-0.00000270,0.00000691,-0.00000566,-0.00000318,0.00000228,-0.000008
 98,0.00000649,-0.00000428,-0.00000330,0.00001388,-0.00000387,0.0000047
 0,-0.00000399,-0.00000465,-0.00001011,0.00000796,0.00000243,0.00000345
 ,-0.00000378,-0.00000580,-0.00000092,-0.00000403,-0.00000248,0.0000010
 7,0.00000214\\\@


 SUPPORT THE RIGHT TO ARM BEARS!
 (ADD A CLAWS TO THE BILL OF RIGHTS)
 Job cpu time:       0 days  0 hours  0 minutes  4.7 seconds.
 Elapsed time:       0 days  0 hours  0 minutes  4.6 seconds.
 File lengths (MBytes):  RWF=     25 Int=      0 D2E=      0 Chk=      2 Scr=      1
 Normal termination of Gaussian 16 at Mon Jun  9 21:54:42 2025.
