 Entering Gaussian System, Link 0=g16
 Input=/home/gaussian/Documents/Summer_Internship/Acid_Base_adduct/Base/PH3/PH3_sp.com
 Output=/home/gaussian/Documents/Summer_Internship/Acid_Base_adduct/Base/PH3/PH3_sp.log
 Initial command:
 /usr/local/g16/l1.exe "/home/gaussian/tmp/Gau-73337.inp" -scrdir="/home/gaussian/tmp/"
 Entering Link 1 = /usr/local/g16/l1.exe PID=     73340.
  
 Copyright (c) 1988-2017, Gaussian, Inc.  All Rights Reserved.
  
 This is part of the Gaussian(R) 16 program.  It is based on
 the Gaussian(R) 09 system (copyright 2009, Gaussian, Inc.),
 the Gaussian(R) 03 system (copyright 2003, Gaussian, Inc.),
 the Gaussian(R) 98 system (copyright 1998, Gaussian, Inc.),
 the Gaussian(R) 94 system (copyright 1995, Gaussian, Inc.),
 the Gaussian 92(TM) system (copyright 1992, Gaussian, Inc.),
 the Gaussian 90(TM) system (copyright 1990, Gaussian, Inc.),
 the Gaussian 88(TM) system (copyright 1988, Gaussian, Inc.),
 the Gaussian 86(TM) system (copyright 1986, Carnegie Mellon
 University), and the Gaussian 82(TM) system (copyright 1983,
 Carnegie Mellon University). Gaussian is a federally registered
 trademark of Gaussian, Inc.
  
 This software contains proprietary and confidential information,
 including trade secrets, belonging to Gaussian, Inc.
  
 This software is provided under written license and may be
 used, copied, transmitted, or stored only in accord with that
 written license.
  
 The following legend is applicable only to US Government
 contracts under FAR:
  
                    RESTRICTED RIGHTS LEGEND
  
 Use, reproduction and disclosure by the US Government is
 subject to restrictions as set forth in subparagraphs (a)
 and (c) of the Commercial Computer Software - Restricted
 Rights clause in FAR 52.227-19.
  
 Gaussian, Inc.
 340 Quinnipiac St., Bldg. 40, Wallingford CT 06492
  
  
 ---------------------------------------------------------------
 Warning -- This program may not be used in any manner that
 competes with the business of Gaussian, Inc. or will provide
 assistance to any competitor of Gaussian, Inc.  The licensee
 of this program is prohibited from giving any competitor of
 Gaussian, Inc. access to this program.  By using this program,
 the user acknowledges that Gaussian, Inc. is engaged in the
 business of creating and licensing software in the field of
 computational chemistry and represents and warrants to the
 licensee that it is not a competitor of Gaussian, Inc. and that
 it will not use this program in any manner prohibited above.
 ---------------------------------------------------------------
  

 Cite this work as:
 Gaussian 16, Revision B.01,
 M. J. Frisch, G. W. Trucks, H. B. Schlegel, G. E. Scuseria, 
 M. A. Robb, J. R. Cheeseman, G. Scalmani, V. Barone, 
 G. A. Petersson, H. Nakatsuji, X. Li, M. Caricato, A. V. Marenich, 
 J. Bloino, B. G. Janesko, R. Gomperts, B. Mennucci, H. P. Hratchian, 
 J. V. Ortiz, A. F. Izmaylov, J. L. Sonnenberg, D. Williams-Young, 
 F. Ding, F. Lipparini, F. Egidi, J. Goings, B. Peng, A. Petrone, 
 T. Henderson, D. Ranasinghe, V. G. Zakrzewski, J. Gao, N. Rega, 
 G. Zheng, W. Liang, M. Hada, M. Ehara, K. Toyota, R. Fukuda, 
 J. Hasegawa, M. Ishida, T. Nakajima, Y. Honda, O. Kitao, H. Nakai, 
 T. Vreven, K. Throssell, J. A. Montgomery, Jr., J. E. Peralta, 
 F. Ogliaro, M. J. Bearpark, J. J. Heyd, E. N. Brothers, K. N. Kudin, 
 V. N. Staroverov, T. A. Keith, R. Kobayashi, J. Normand, 
 K. Raghavachari, A. P. Rendell, J. C. Burant, S. S. Iyengar, 
 J. Tomasi, M. Cossi, J. M. Millam, M. Klene, C. Adamo, R. Cammi, 
 J. W. Ochterski, R. L. Martin, K. Morokuma, O. Farkas, 
 J. B. Foresman, and D. J. Fox, Gaussian, Inc., Wallingford CT, 2016.
 
 ******************************************
 Gaussian 16:  EM64L-G16RevB.01 20-Dec-2017
                16-Jun-2025 
 ******************************************
 %chk=PH3_sp.chk
 -------------------------------------
 # hf/3-21g pop=full geom=connectivity
 -------------------------------------
 1/38=1,57=2,172=1/1;
 2/12=2,17=6,18=5,40=1/2;
 3/5=5,11=9,25=1,30=1/1,2,3;
 4//1;
 5/5=2,38=5/2;
 6/7=3,28=1/1;
 99/5=1,9=1/99;
 ------
 PH3 sp
 ------
 Symbolic Z-matrix:
 Charge =  0 Multiplicity = 1
 P                     0.        0.        0.12152 
 H                     0.        1.22155  -0.6076 
 H                    -1.05789  -0.61077  -0.6076 
 H                     1.05789  -0.61077  -0.6076 
 
                          Input orientation:                          
 ---------------------------------------------------------------------
 Center     Atomic      Atomic             Coordinates (Angstroms)
 Number     Number       Type             X           Y           Z
 ---------------------------------------------------------------------
      1         15           0        0.000000    0.000000    0.121519
      2          1           0        0.000000    1.221547   -0.607595
      3          1           0       -1.057891   -0.610774   -0.607595
      4          1           0        1.057891   -0.610774   -0.607595
 ---------------------------------------------------------------------
                    Distance matrix (angstroms):
                    1          2          3          4
     1  P    0.000000
     2  H    1.422598   0.000000
     3  H    1.422598   2.115782   0.000000
     4  H    1.422598   2.115782   2.115782   0.000000
 Stoichiometry    H3P
 Framework group  C3[C3(P),X(H3)]
 Deg. of freedom     2
 Full point group                 C3      NOp   3
 Largest Abelian subgroup         C1      NOp   1
 Largest concise Abelian subgroup C1      NOp   1
                         Standard orientation:                         
 ---------------------------------------------------------------------
 Center     Atomic      Atomic             Coordinates (Angstroms)
 Number     Number       Type             X           Y           Z
 ---------------------------------------------------------------------
      1         15           0       -0.000000   -0.000000    0.121519
      2          1           0        0.000000    1.221547   -0.607595
      3          1           0       -1.057891   -0.610774   -0.607595
      4          1           0        1.057891   -0.610774   -0.607595
 ---------------------------------------------------------------------
 Rotational constants (GHZ):         135.8494787         135.8494787         112.0186667
 Standard basis: 3-21G (6D, 7F)
 There are    19 symmetry adapted cartesian basis functions of A   symmetry.
 There are    19 symmetry adapted basis functions of A   symmetry.
    19 basis functions,    36 primitive gaussians,    19 cartesian basis functions
     9 alpha electrons        9 beta electrons
       nuclear repulsion energy        17.4894062418 Hartrees.
 NAtoms=    4 NActive=    4 NUniq=    2 SFac= 4.00D+00 NAtFMM=   60 NAOKFM=F Big=F
 Integral buffers will be    131072 words long.
 Raffenetti 1 integral format.
 Two-electron integral symmetry is turned on.
 One-electron integrals computed using PRISM.
 NBasis=    19 RedAO= T EigKep=  2.30D-02  NBF=    19
 NBsUse=    19 1.00D-06 EigRej= -1.00D+00 NBFU=    19
 ExpMin= 1.23D-01 ExpMax= 1.05D+03 ExpMxC= 1.05D+03 IAcc=3 IRadAn=         5 AccDes= 0.00D+00
 Harris functional with IExCor=  205 and IRadAn=       5 diagonalized for initial guess.
 HarFok:  IExCor=  205 AccDes= 0.00D+00 IRadAn=         5 IDoV= 1 UseB2=F ITyADJ=14
 ICtDFT=  3500011 ScaDFX=  1.000000  1.000000  1.000000  1.000000
 FoFCou: FMM=F IPFlag=           0 FMFlag=      100000 FMFlg1=           0
         NFxFlg=           0 DoJE=T BraDBF=F KetDBF=T FulRan=T
         wScrn=  0.000000 ICntrl=       500 IOpCl=  0 I1Cent=   200000004 NGrid=           0
         NMat0=    1 NMatS0=      1 NMatT0=    0 NMatD0=    1 NMtDS0=    0 NMtDT0=    0
 Petite list used in FoFCou.
 Initial guess orbital symmetries:
       Occupied  (A) (A) (E) (E) (A) (A) (E) (E) (A)
       Virtual   (E) (E) (A) (E) (E) (A) (A) (A) (E) (E)
 The electronic state of the initial guess is 1-A.
 Keep R1 ints in memory in canonical form, NReq=822654.
 Requested convergence on RMS density matrix=1.00D-08 within 128 cycles.
 Requested convergence on MAX density matrix=1.00D-06.
 Requested convergence on             energy=1.00D-06.
 No special actions if energy rises.
 SCF Done:  E(RHF) =  -340.704519276     A.U. after    9 cycles
            NFock=  9  Conv=0.30D-08     -V/T= 2.0007

 **********************************************************************

            Population analysis using the SCF Density.

 **********************************************************************

 Orbital symmetries:
       Occupied  (A) (A) (E) (E) (A) (A) (E) (E) (A)
       Virtual   (E) (E) (A) (E) (E) (A) (A) (A) (E) (E)
 The electronic state is 1-A.
 Alpha  occ. eigenvalues --  -79.38629  -7.46103  -5.34525  -5.34525  -5.34249
 Alpha  occ. eigenvalues --   -0.87579  -0.52734  -0.52734  -0.38055
 Alpha virt. eigenvalues --    0.18103   0.18103   0.26458   0.60381   0.60381
 Alpha virt. eigenvalues --    0.63275   0.70958   1.20672   1.26127   1.26127
     Molecular Orbital Coefficients:
                           1         2         3         4         5
                           O         O         O         O         O
     Eigenvalues --   -79.38629  -7.46103  -5.34525  -5.34525  -5.34249
   1 1   P  1S          0.98703  -0.29568  -0.00000   0.00000  -0.00443
   2        2S          0.04868   0.99736   0.00000  -0.00000   0.01537
   3        2PX        -0.00000   0.00000   0.95790   0.17003  -0.00000
   4        2PY         0.00000   0.00000  -0.17003   0.95790   0.00000
   5        2PZ        -0.00018  -0.01291   0.00000  -0.00000   0.97339
   6        3S         -0.01536   0.12903  -0.00000   0.00000  -0.00502
   7        3PX         0.00000   0.00000   0.08660   0.01537  -0.00000
   8        3PY         0.00000   0.00000  -0.01537   0.08660   0.00000
   9        3PZ         0.00033  -0.00534   0.00000  -0.00000   0.08627
  10        4S          0.01033  -0.08346   0.00000  -0.00000   0.01383
  11        4PX        -0.00000  -0.00000  -0.02967  -0.00527   0.00000
  12        4PY         0.00000  -0.00000   0.00527  -0.02967  -0.00000
  13        4PZ        -0.00186   0.01946  -0.00000   0.00000  -0.03091
  14 2   H  1S          0.00085  -0.00460   0.00103  -0.00578   0.00328
  15        2S         -0.00220   0.02016  -0.00154   0.00865  -0.00762
  16 3   H  1S          0.00085  -0.00460   0.00449   0.00378   0.00328
  17        2S         -0.00220   0.02016  -0.00672  -0.00565  -0.00762
  18 4   H  1S          0.00085  -0.00460  -0.00551   0.00200   0.00328
  19        2S         -0.00220   0.02016   0.00826  -0.00299  -0.00762
                           6         7         8         9        10
                           O         O         O         O         V
     Eigenvalues --    -0.87579  -0.52734  -0.52734  -0.38055   0.18103
   1 1   P  1S          0.06241   0.00000   0.00000   0.03001  -0.00000
   2        2S         -0.33690  -0.00000  -0.00000  -0.16679   0.00000
   3        2PX        -0.00000   0.16730   0.07802  -0.00000   0.08942
   4        2PY         0.00000   0.07802  -0.16730   0.00000  -0.10107
   5        2PZ         0.05647   0.00000   0.00000  -0.20913  -0.00000
   6        3S          0.37770   0.00000  -0.00000   0.20625   0.00000
   7        3PX         0.00000  -0.33006  -0.15393   0.00000  -0.16058
   8        3PY        -0.00000  -0.15393   0.33006  -0.00000   0.18148
   9        3PZ        -0.10806  -0.00000  -0.00000   0.41178   0.00000
  10        4S          0.46187  -0.00000   0.00000   0.38756  -0.00000
  11        4PX         0.00000  -0.15939  -0.07433   0.00000  -0.84382
  12        4PY        -0.00000  -0.07433   0.15939  -0.00000   0.95369
  13        4PZ        -0.06413   0.00000  -0.00000   0.46480   0.00000
  14 2   H  1S          0.12782  -0.10601   0.22731  -0.08312  -0.10163
  15        2S          0.05703  -0.15858   0.34004  -0.11240  -0.86251
  16 3   H  1S          0.12782   0.24986  -0.02185  -0.08312  -0.02706
  17        2S          0.05703   0.37378  -0.03268  -0.11240  -0.22965
  18 4   H  1S          0.12782  -0.14385  -0.20546  -0.08312   0.12868
  19        2S          0.05703  -0.21519  -0.30736  -0.11240   1.09216
                          11        12        13        14        15
                           V         V         V         V         V
     Eigenvalues --     0.18103   0.26458   0.60381   0.60381   0.63275
   1 1   P  1S         -0.00000   0.04674  -0.00000  -0.00000  -0.00914
   2        2S          0.00000  -0.27179   0.00000   0.00000   0.05967
   3        2PX        -0.10107   0.00000  -0.04913  -0.33926  -0.00000
   4        2PY        -0.08942  -0.00000  -0.33926   0.04913  -0.00000
   5        2PZ        -0.00000   0.10729  -0.00000  -0.00000   0.33796
   6        3S         -0.00000   0.36133  -0.00000  -0.00000  -0.02006
   7        3PX         0.18148  -0.00000   0.18218   1.25810   0.00000
   8        3PY         0.16058   0.00000   1.25810  -0.18218   0.00000
   9        3PZ         0.00000  -0.24005   0.00000   0.00000  -1.27191
  10        4S          0.00000   1.75025   0.00000   0.00000  -0.42378
  11        4PX         0.95369  -0.00000  -0.17214  -1.18878  -0.00000
  12        4PY         0.84382   0.00000  -1.18878   0.17214   0.00000
  13        4PZ         0.00000  -1.16737  -0.00000  -0.00000   1.42449
  14 2   H  1S         -0.08992  -0.04231   0.15674  -0.02270   0.09538
  15        2S         -0.76315  -1.19047  -0.03360   0.00487   0.21137
  16 3   H  1S          0.13297  -0.04231  -0.09803  -0.12439   0.09538
  17        2S          1.12853  -1.19047   0.02102   0.02667   0.21137
  18 4   H  1S         -0.04305  -0.04231  -0.05872   0.14709   0.09538
  19        2S         -0.36538  -1.19047   0.01259  -0.03153   0.21137
                          16        17        18        19
                           V         V         V         V
     Eigenvalues --     0.70958   1.20672   1.26127   1.26127
   1 1   P  1S         -0.05325  -0.02861  -0.00000   0.00000
   2        2S          0.11683   0.09567   0.00000  -0.00000
   3        2PX         0.00000   0.00000  -0.12757  -0.05764
   4        2PY         0.00000  -0.00000   0.05764  -0.12757
   5        2PZ         0.02280  -0.12065  -0.00000   0.00000
   6        3S         -2.16293  -0.82233  -0.00000   0.00000
   7        3PX        -0.00000  -0.00000   0.37138   0.16780
   8        3PY        -0.00000   0.00000  -0.16780   0.37138
   9        3PZ         0.01135   0.37010   0.00000  -0.00000
  10        4S          3.95060   2.25773   0.00000  -0.00000
  11        4PX         0.00000   0.00000  -0.70600  -0.31899
  12        4PY         0.00000  -0.00000   0.31899  -0.70600
  13        4PZ        -1.19403  -0.96886  -0.00000   0.00000
  14 2   H  1S         -0.16970   0.73457   0.44800  -0.99151
  15        2S         -1.07478  -1.28735  -0.58066   1.28514
  16 3   H  1S         -0.16970   0.73457   0.63468   0.88373
  17        2S         -1.07478  -1.28735  -0.82263  -1.14544
  18 4   H  1S         -0.16970   0.73457  -1.08267   0.10778
  19        2S         -1.07478  -1.28735   1.40329  -0.13970
     Density Matrix:
                           1         2         3         4         5
   1 1   P  1S          2.13296
   2        2S         -0.54590   2.27730
   3        2PX        -0.00000  -0.00000   1.96113
   4        2PY         0.00000  -0.00000  -0.00000   1.96113
   5        2PZ        -0.00684   0.03586   0.00000  -0.00000   1.98915
   6        3S         -0.04706  -0.06756  -0.00000   0.00000  -0.05671
   7        3PX         0.00000   0.00000   0.03667  -0.00000   0.00000
   8        3PY         0.00000   0.00000  -0.00000   0.03667  -0.00000
   9        3PZ         0.01428  -0.07251  -0.00000  -0.00000  -0.01635
  10        4S          0.15054  -0.60554   0.00000  -0.00000  -0.08085
  11        4PX        -0.00000  -0.00000  -0.12357   0.00000   0.00000
  12        4PY         0.00000   0.00000   0.00000  -0.12357   0.00000
  13        4PZ         0.00499  -0.07415  -0.00000   0.00000  -0.26232
  14 2   H  1S          0.01534  -0.06739  -0.00000  -0.10402   0.05570
  15        2S         -0.01583   0.03884  -0.00000  -0.12144   0.03809
  16 3   H  1S          0.01534  -0.06739   0.09008   0.05201   0.05570
  17        2S         -0.01583   0.03884   0.10517   0.06072   0.03809
  18 4   H  1S          0.01534  -0.06739  -0.09008   0.05201   0.05570
  19        2S         -0.01583   0.03884  -0.10517   0.06072   0.03809
                           6         7         8         9        10
   6        3S          0.40421
   7        3PX         0.00000   0.28075
   8        3PY        -0.00000  -0.00000   0.28075
   9        3PZ         0.08597   0.00000   0.00000   0.37742
  10        4S          0.48677   0.00000   0.00000   0.22264   0.74158
  11        4PX         0.00000   0.12280   0.00000  -0.00000   0.00000
  12        4PY        -0.00000  -0.00000   0.12280  -0.00000   0.00000
  13        4PZ         0.14868  -0.00000  -0.00000   0.39111   0.29689
  14 2   H  1S          0.06102   0.00000   0.18166  -0.09547   0.05452
  15        2S          0.00206   0.00000   0.27484  -0.10643  -0.03806
  16 3   H  1S          0.06102  -0.15732  -0.09083  -0.09547   0.05452
  17        2S          0.00206  -0.23802  -0.13742  -0.10643  -0.03806
  18 4   H  1S          0.06102   0.15732  -0.09083  -0.09547   0.05452
  19        2S          0.00206   0.23802  -0.13742  -0.10643  -0.03806
                          11        12        13        14        15
  11        4PX         0.06367
  12        4PY        -0.00000   0.06367
  13        4PZ        -0.00000  -0.00000   0.44299
  14 2   H  1S          0.00000   0.08857  -0.09405   0.17244
  15        2S          0.00000   0.13144  -0.11054   0.22114   0.31442
  16 3   H  1S         -0.07671  -0.04429  -0.09405  -0.01638  -0.06103
  17        2S         -0.11383  -0.06572  -0.11054  -0.06103  -0.10814
  18 4   H  1S          0.07671  -0.04429  -0.09405  -0.01638  -0.06103
  19        2S          0.11383  -0.06572  -0.11054  -0.06103  -0.10814
                          16        17        18        19
  16 3   H  1S          0.17244
  17        2S          0.22114   0.31442
  18 4   H  1S         -0.01638  -0.06103   0.17244
  19        2S         -0.06103  -0.10814   0.22114   0.31442
    Full Mulliken population analysis:
                           1         2         3         4         5
   1 1   P  1S          2.13296
   2        2S         -0.13713   2.27730
   3        2PX         0.00000   0.00000   1.96113
   4        2PY         0.00000   0.00000  -0.00000   1.96113
   5        2PZ         0.00000   0.00000   0.00000   0.00000   1.98915
   6        3S         -0.00159  -0.02388   0.00000   0.00000   0.00000
   7        3PX         0.00000   0.00000   0.01109   0.00000   0.00000
   8        3PY         0.00000   0.00000   0.00000   0.01109   0.00000
   9        3PZ         0.00000   0.00000   0.00000   0.00000  -0.00495
  10        4S          0.00495  -0.15442   0.00000   0.00000   0.00000
  11        4PX         0.00000   0.00000  -0.00914   0.00000   0.00000
  12        4PY         0.00000   0.00000   0.00000  -0.00914   0.00000
  13        4PZ         0.00000   0.00000   0.00000   0.00000  -0.01940
  14 2   H  1S          0.00001  -0.00047  -0.00000  -0.00088  -0.00028
  15        2S         -0.00019   0.00374  -0.00000  -0.00400  -0.00075
  16 3   H  1S          0.00001  -0.00047  -0.00066  -0.00022  -0.00028
  17        2S         -0.00019   0.00374  -0.00300  -0.00100  -0.00075
  18 4   H  1S          0.00001  -0.00047  -0.00066  -0.00022  -0.00028
  19        2S         -0.00019   0.00374  -0.00300  -0.00100  -0.00075
                           6         7         8         9        10
   6        3S          0.40421
   7        3PX         0.00000   0.28075
   8        3PY         0.00000   0.00000   0.28075
   9        3PZ         0.00000   0.00000   0.00000   0.37742
  10        4S          0.40595   0.00000   0.00000   0.00000   0.74158
  11        4PX         0.00000   0.07940  -0.00000   0.00000   0.00000
  12        4PY         0.00000  -0.00000   0.07940   0.00000   0.00000
  13        4PZ         0.00000   0.00000   0.00000   0.25290   0.00000
  14 2   H  1S          0.00894   0.00000   0.04221   0.01324   0.01311
  15        2S          0.00082  -0.00000   0.08867   0.02049  -0.02172
  16 3   H  1S          0.00894   0.03166   0.01055   0.01324   0.01311
  17        2S          0.00082   0.06650   0.02217   0.02049  -0.02172
  18 4   H  1S          0.00894   0.03166   0.01055   0.01324   0.01311
  19        2S          0.00082   0.06650   0.02217   0.02049  -0.02172
                          11        12        13        14        15
  11        4PX         0.06367
  12        4PY         0.00000   0.06367
  13        4PZ         0.00000   0.00000   0.44299
  14 2   H  1S          0.00000   0.03016   0.01912   0.17244
  15        2S          0.00000   0.07264   0.03646   0.14283   0.31442
  16 3   H  1S          0.02262   0.00754   0.01912  -0.00002  -0.00352
  17        2S          0.05448   0.01816   0.03646  -0.00352  -0.02501
  18 4   H  1S          0.02262   0.00754   0.01912  -0.00002  -0.00352
  19        2S          0.05448   0.01816   0.03646  -0.00352  -0.02501
                          16        17        18        19
  16 3   H  1S          0.17244
  17        2S          0.14283   0.31442
  18 4   H  1S         -0.00002  -0.00352   0.17244
  19        2S         -0.00352  -0.02501   0.14283   0.31442
     Gross orbital populations:
                           1
   1 1   P  1S          1.99864
   2        2S          1.97168
   3        2PX         1.95576
   4        2PY         1.95576
   5        2PZ         1.96171
   6        3S          0.81395
   7        3PX         0.56755
   8        3PY         0.56755
   9        3PZ         0.72658
  10        4S          0.97224
  11        4PX         0.28814
  12        4PY         0.28814
  13        4PZ         0.84322
  14 2   H  1S          0.43334
  15        2S          0.59636
  16 3   H  1S          0.43334
  17        2S          0.59636
  18 4   H  1S          0.43334
  19        2S          0.59636
          Condensed to atoms (all electrons):
               1          2          3          4
     1  P   13.946975   0.321316   0.321316   0.321316
     2  H    0.321316   0.772527  -0.032075  -0.032075
     3  H    0.321316  -0.032075   0.772527  -0.032075
     4  H    0.321316  -0.032075  -0.032075   0.772527
 Mulliken charges:
               1
     1  P    0.089077
     2  H   -0.029692
     3  H   -0.029692
     4  H   -0.029692
 Sum of Mulliken charges =   0.00000
 Mulliken charges with hydrogens summed into heavy atoms:
               1
     1  P    0.000000
 Electronic spatial extent (au):  <R**2>=             57.0006
 Charge=              0.0000 electrons
 Dipole moment (field-independent basis, Debye):
    X=             -0.0000    Y=              0.0000    Z=             -1.2424  Tot=              1.2424
 Quadrupole moment (field-independent basis, Debye-Ang):
   XX=            -15.3439   YY=            -15.3439   ZZ=            -18.0946
   XY=             -0.0000   XZ=             -0.0000   YZ=             -0.0000
 Traceless Quadrupole moment (field-independent basis, Debye-Ang):
   XX=              0.9169   YY=              0.9169   ZZ=             -1.8338
   XY=             -0.0000   XZ=             -0.0000   YZ=             -0.0000
 Octapole moment (field-independent basis, Debye-Ang**2):
  XXX=              0.0000  YYY=             -0.5135  ZZZ=             -1.8226  XYY=             -0.0000
  XXY=              0.5135  XXZ=              0.1518  XZZ=              0.0000  YZZ=              0.0000
  YYZ=              0.1518  XYZ=              0.0000
 Hexadecapole moment (field-independent basis, Debye-Ang**3):
 XXXX=            -32.9919 YYYY=            -32.9919 ZZZZ=            -35.6765 XXXY=             -0.0000
 XXXZ=             -0.0000 YYYX=             -0.0000 YYYZ=              0.0047 ZZZX=             -0.0000
 ZZZY=             -0.0000 XXYY=            -10.9973 XXZZ=            -11.3285 YYZZ=            -11.3285
 XXYZ=             -0.0047 YYXZ=              0.0000 ZZXY=             -0.0000
 N-N= 1.748940624179D+01 E-N=-8.464829092499D+02  KE= 3.404777224871D+02
 Orbital energies and kinetic energies (alpha):
                                 1                 2
   1         O               -79.386289        105.411404
   2         O                -7.461032         16.233658
   3         O                -5.345247         14.564479
   4         O                -5.345247         14.564479
   5         O                -5.342489         14.580749
   6         O                -0.875790          1.490736
   7         O                -0.527343          1.023509
   8         O                -0.527343          1.023509
   9         O                -0.380551          1.346338
  10         V                 0.181032          0.819792
  11         V                 0.181032          0.819792
  12         V                 0.264582          1.456063
  13         V                 0.603808          2.483648
  14         V                 0.603808          2.483648
  15         V                 0.632750          2.465086
  16         V                 0.709578          1.642917
  17         V                 1.206721          2.596617
  18         V                 1.261271          2.468856
  19         V                 1.261271          2.468856
 Total kinetic energy from orbitals= 3.404777224871D+02
 1\1\GINC-IISERK51\SP\RHF\3-21G\H3P1\GAUSSIAN\16-Jun-2025\0\\# hf/3-21g
  pop=full geom=connectivity\\PH3 sp\\0,1\P,0,0.,0.,0.121519\H,0,0.,1.2
 21547,-0.607595\H,0,-1.057891,-0.610774,-0.607595\H,0,1.057891,-0.6107
 74,-0.607595\\Version=EM64L-G16RevB.01\State=1-A\HF=-340.7045193\RMSD=
 3.015e-09\Dipole=0.,0.,-0.4888021\Quadrupole=0.6816758,0.6816758,-1.36
 33517,0.,0.,0.\PG=C03 [C3(P1),X(H3)]\\@


 BLACK HOLES SUCK.
 Job cpu time:       0 days  0 hours  0 minutes  0.4 seconds.
 Elapsed time:       0 days  0 hours  0 minutes  0.4 seconds.
 File lengths (MBytes):  RWF=      6 Int=      0 D2E=      0 Chk=      1 Scr=      1
 Normal termination of Gaussian 16 at Mon Jun 16 16:20:37 2025.
