 Entering Gaussian System, Link 0=g16
 Input=/home/gaussian/Documents/Summer_Internship/Acid_Base_adduct/Base/PH3/PH3_opt.com
 Output=/home/gaussian/Documents/Summer_Internship/Acid_Base_adduct/Base/PH3/PH3_opt.log
 Initial command:
 /usr/local/g16/l1.exe "/home/gaussian/tmp/Gau-73326.inp" -scrdir="/home/gaussian/tmp/"
 Entering Link 1 = /usr/local/g16/l1.exe PID=     73329.
  
 Copyright (c) 1988-2017, Gaussian, Inc.  All Rights Reserved.
  
 This is part of the Gaussian(R) 16 program.  It is based on
 the Gaussian(R) 09 system (copyright 2009, Gaussian, Inc.),
 the Gaussian(R) 03 system (copyright 2003, Gaussian, Inc.),
 the Gaussian(R) 98 system (copyright 1998, Gaussian, Inc.),
 the Gaussian(R) 94 system (copyright 1995, Gaussian, Inc.),
 the Gaussian 92(TM) system (copyright 1992, Gaussian, Inc.),
 the Gaussian 90(TM) system (copyright 1990, Gaussian, Inc.),
 the Gaussian 88(TM) system (copyright 1988, Gaussian, Inc.),
 the Gaussian 86(TM) system (copyright 1986, Carnegie Mellon
 University), and the Gaussian 82(TM) system (copyright 1983,
 Carnegie Mellon University). Gaussian is a federally registered
 trademark of Gaussian, Inc.
  
 This software contains proprietary and confidential information,
 including trade secrets, belonging to Gaussian, Inc.
  
 This software is provided under written license and may be
 used, copied, transmitted, or stored only in accord with that
 written license.
  
 The following legend is applicable only to US Government
 contracts under FAR:
  
                    RESTRICTED RIGHTS LEGEND
  
 Use, reproduction and disclosure by the US Government is
 subject to restrictions as set forth in subparagraphs (a)
 and (c) of the Commercial Computer Software - Restricted
 Rights clause in FAR 52.227-19.
  
 Gaussian, Inc.
 340 Quinnipiac St., Bldg. 40, Wallingford CT 06492
  
  
 ---------------------------------------------------------------
 Warning -- This program may not be used in any manner that
 competes with the business of Gaussian, Inc. or will provide
 assistance to any competitor of Gaussian, Inc.  The licensee
 of this program is prohibited from giving any competitor of
 Gaussian, Inc. access to this program.  By using this program,
 the user acknowledges that Gaussian, Inc. is engaged in the
 business of creating and licensing software in the field of
 computational chemistry and represents and warrants to the
 licensee that it is not a competitor of Gaussian, Inc. and that
 it will not use this program in any manner prohibited above.
 ---------------------------------------------------------------
  

 Cite this work as:
 Gaussian 16, Revision B.01,
 M. J. Frisch, G. W. Trucks, H. B. Schlegel, G. E. Scuseria, 
 M. A. Robb, J. R. Cheeseman, G. Scalmani, V. Barone, 
 G. A. Petersson, H. Nakatsuji, X. Li, M. Caricato, A. V. Marenich, 
 J. Bloino, B. G. Janesko, R. Gomperts, B. Mennucci, H. P. Hratchian, 
 J. V. Ortiz, A. F. Izmaylov, J. L. Sonnenberg, D. Williams-Young, 
 F. Ding, F. Lipparini, F. Egidi, J. Goings, B. Peng, A. Petrone, 
 T. Henderson, D. Ranasinghe, V. G. Zakrzewski, J. Gao, N. Rega, 
 G. Zheng, W. Liang, M. Hada, M. Ehara, K. Toyota, R. Fukuda, 
 J. Hasegawa, M. Ishida, T. Nakajima, Y. Honda, O. Kitao, H. Nakai, 
 T. Vreven, K. Throssell, J. A. Montgomery, Jr., J. E. Peralta, 
 F. Ogliaro, M. J. Bearpark, J. J. Heyd, E. N. Brothers, K. N. Kudin, 
 V. N. Staroverov, T. A. Keith, R. Kobayashi, J. Normand, 
 K. Raghavachari, A. P. Rendell, J. C. Burant, S. S. Iyengar, 
 J. Tomasi, M. Cossi, J. M. Millam, M. Klene, C. Adamo, R. Cammi, 
 J. W. Ochterski, R. L. Martin, K. Morokuma, O. Farkas, 
 J. B. Foresman, and D. J. Fox, Gaussian, Inc., Wallingford CT, 2016.
 
 ******************************************
 Gaussian 16:  EM64L-G16RevB.01 20-Dec-2017
                16-Jun-2025 
 ******************************************
 %chk=PH3_opt.chk
 ----------------------------------------------
 # opt freq hf/3-21g pop=full geom=connectivity
 ----------------------------------------------
 1/18=20,19=15,38=1,57=2/1,3;
 2/9=110,12=2,17=6,18=5,40=1/2;
 3/5=5,11=9,25=1,30=1,71=1/1,2,3;
 4//1;
 5/5=2,38=5/2;
 6/7=3,28=1/1;
 7//1,2,3,16;
 1/18=20,19=15/3(2);
 2/9=110/2;
 99//99;
 2/9=110/2;
 3/5=5,11=9,25=1,30=1,71=1/1,2,3;
 4/5=5,16=3,69=1/1;
 5/5=2,38=5/2;
 7//1,2,3,16;
 1/18=20,19=15/3(-5);
 2/9=110/2;
 6/7=3,19=2,28=1/1;
 99/9=1/99;
 -------
 PH3 opt
 -------
 Symbolic Z-matrix:
 Charge =  0 Multiplicity = 1
 P                     0.30055   0.59563   0. 
 H                     0.75053  -0.67717   0. 
 H                     0.75055   1.23202   1.10227 
 H                     0.75055   1.23202  -1.10227 
 

 GradGradGradGradGradGradGradGradGradGradGradGradGradGradGradGradGradGrad
 Berny optimization.
 Initialization pass.
                           ----------------------------
                           !    Initial Parameters    !
                           ! (Angstroms and Degrees)  !
 --------------------------                            --------------------------
 ! Name  Definition              Value          Derivative Info.                !
 --------------------------------------------------------------------------------
 ! R1    R(1,2)                  1.35           estimate D2E/DX2                !
 ! R2    R(1,3)                  1.35           estimate D2E/DX2                !
 ! R3    R(1,4)                  1.35           estimate D2E/DX2                !
 ! A1    A(2,1,3)              109.4712         estimate D2E/DX2                !
 ! A2    A(2,1,4)              109.4712         estimate D2E/DX2                !
 ! A3    A(3,1,4)              109.4713         estimate D2E/DX2                !
 ! D1    D(2,1,4,3)           -120.0            estimate D2E/DX2                !
 --------------------------------------------------------------------------------
 Trust Radius=3.00D-01 FncErr=1.00D-07 GrdErr=1.00D-07 EigMax=2.50D+02 EigMin=1.00D-04
 Number of steps in this run=     20 maximum allowed number of steps=    100.
 GradGradGradGradGradGradGradGradGradGradGradGradGradGradGradGradGradGrad

                          Input orientation:                          
 ---------------------------------------------------------------------
 Center     Atomic      Atomic             Coordinates (Angstroms)
 Number     Number       Type             X           Y           Z
 ---------------------------------------------------------------------
      1         15           0        0.300546    0.595628    0.000000
      2          1           0        0.750531   -0.677169    0.000000
      3          1           0        0.750554    1.232019    1.102271
      4          1           0        0.750554    1.232019   -1.102271
 ---------------------------------------------------------------------
                    Distance matrix (angstroms):
                    1          2          3          4
     1  P    0.000000
     2  H    1.350000   0.000000
     3  H    1.350000   2.204541   0.000000
     4  H    1.350000   2.204541   2.204541   0.000000
 Stoichiometry    H3P
 Framework group  C3[C3(P),X(H3)]
 Deg. of freedom     2
 Full point group                 C3      NOp   3
 Largest Abelian subgroup         C1      NOp   1
 Largest concise Abelian subgroup C1      NOp   1
                         Standard orientation:                         
 ---------------------------------------------------------------------
 Center     Atomic      Atomic             Coordinates (Angstroms)
 Number     Number       Type             X           Y           Z
 ---------------------------------------------------------------------
      1         15           0       -0.000000   -0.000000    0.075000
      2          1           0        0.000000    1.272792   -0.375000
      3          1           0       -1.102270   -0.636396   -0.375000
      4          1           0        1.102270   -0.636396   -0.375000
 ---------------------------------------------------------------------
 Rotational constants (GHZ):         168.0776479         168.0776479         103.1800623
 Standard basis: 3-21G (6D, 7F)
 There are    19 symmetry adapted cartesian basis functions of A   symmetry.
 There are    19 symmetry adapted basis functions of A   symmetry.
    19 basis functions,    36 primitive gaussians,    19 cartesian basis functions
     9 alpha electrons        9 beta electrons
       nuclear repulsion energy        18.3593599327 Hartrees.



 Warning!  P  atom    1 may be hypervalent but has no d functions.



 NAtoms=    4 NActive=    4 NUniq=    2 SFac= 4.00D+00 NAtFMM=   60 NAOKFM=F Big=F
 Integral buffers will be    131072 words long.
 Raffenetti 1 integral format.
 Two-electron integral symmetry is turned on.
 One-electron integrals computed using PRISM.
 NBasis=    19 RedAO= T EigKep=  3.22D-02  NBF=    19
 NBsUse=    19 1.00D-06 EigRej= -1.00D+00 NBFU=    19
 ExpMin= 1.23D-01 ExpMax= 1.05D+03 ExpMxC= 1.05D+03 IAcc=3 IRadAn=         5 AccDes= 0.00D+00
 Harris functional with IExCor=  205 and IRadAn=       5 diagonalized for initial guess.
 HarFok:  IExCor=  205 AccDes= 0.00D+00 IRadAn=         5 IDoV= 1 UseB2=F ITyADJ=14
 ICtDFT=  3500011 ScaDFX=  1.000000  1.000000  1.000000  1.000000
 FoFCou: FMM=F IPFlag=           0 FMFlag=      100000 FMFlg1=           0
         NFxFlg=           0 DoJE=T BraDBF=F KetDBF=T FulRan=T
         wScrn=  0.000000 ICntrl=       500 IOpCl=  0 I1Cent=   200000004 NGrid=           0
         NMat0=    1 NMatS0=      1 NMatT0=    0 NMatD0=    1 NMtDS0=    0 NMtDT0=    0
 Petite list used in FoFCou.
 Initial guess orbital symmetries:
       Occupied  (A) (A) (E) (E) (A) (A) (E) (E) (A)
       Virtual   (E) (E) (A) (E) (E) (A) (A) (A) (E) (E)
 The electronic state of the initial guess is 1-A.
 Keep R1 ints in memory in canonical form, NReq=822696.
 Requested convergence on RMS density matrix=1.00D-08 within 128 cycles.
 Requested convergence on MAX density matrix=1.00D-06.
 Requested convergence on             energy=1.00D-06.
 No special actions if energy rises.
 SCF Done:  E(RHF) =  -340.685775801     A.U. after    9 cycles
            NFock=  9  Conv=0.31D-08     -V/T= 2.0000

 **********************************************************************

            Population analysis using the SCF Density.

 **********************************************************************

 Orbital symmetries:
       Occupied  (A) (A) (E) (E) (A) (A) (E) (E) (A)
       Virtual   (E) (E) (A) (A) (E) (E) (A) (A) (E) (E)
 The electronic state is 1-A.
 Alpha  occ. eigenvalues --  -79.36372  -7.44424  -5.33042  -5.33042  -5.32580
 Alpha  occ. eigenvalues --   -0.88343  -0.56339  -0.56339  -0.33842
 Alpha virt. eigenvalues --    0.21436   0.21436   0.24141   0.57739   0.58791
 Alpha virt. eigenvalues --    0.58791   0.66212   1.20571   1.29950   1.29950
     Molecular Orbital Coefficients:
                           1         2         3         4         5
                           O         O         O         O         O
     Eigenvalues --   -79.36372  -7.44424  -5.33042  -5.33042  -5.32580
   1 1   P  1S          0.98703  -0.29567  -0.00000   0.00000  -0.00407
   2        2S          0.04877   0.99665   0.00000  -0.00000   0.01430
   3        2PX        -0.00000   0.00000   0.95494  -0.18368  -0.00000
   4        2PY         0.00000   0.00000   0.18368   0.95494   0.00000
   5        2PZ        -0.00016  -0.01207   0.00000  -0.00000   0.97363
   6        3S         -0.01498   0.12484  -0.00000   0.00000  -0.00251
   7        3PX         0.00000  -0.00000   0.08766  -0.01686  -0.00000
   8        3PY        -0.00000  -0.00000   0.01686   0.08766   0.00000
   9        3PZ         0.00024  -0.00390   0.00000  -0.00000   0.08546
  10        4S          0.00936  -0.07112   0.00000  -0.00000   0.00611
  11        4PX        -0.00000   0.00000  -0.03099   0.00596   0.00000
  12        4PY         0.00000  -0.00000  -0.00596  -0.03099  -0.00000
  13        4PZ        -0.00090   0.00902  -0.00000   0.00000  -0.02653
  14 2   H  1S          0.00112  -0.00556  -0.00137  -0.00710   0.00236
  15        2S         -0.00188   0.01509   0.00195   0.01013  -0.00375
  16 3   H  1S          0.00112  -0.00556   0.00683   0.00237   0.00236
  17        2S         -0.00188   0.01509  -0.00975  -0.00338  -0.00375
  18 4   H  1S          0.00112  -0.00556  -0.00546   0.00473   0.00236
  19        2S         -0.00188   0.01509   0.00780  -0.00675  -0.00375
                           6         7         8         9        10
                           O         O         O         O         V
     Eigenvalues --    -0.88343  -0.56339  -0.56339  -0.33842   0.21436
   1 1   P  1S          0.06357   0.00000  -0.00000   0.02238   0.00000
   2        2S         -0.34063  -0.00000   0.00000  -0.12460  -0.00000
   3        2PX         0.00000  -0.19189  -0.01690  -0.00000  -0.09295
   4        2PY         0.00000   0.01690  -0.19189  -0.00000  -0.07093
   5        2PZ         0.04478   0.00000   0.00000  -0.22313   0.00000
   6        3S          0.39572  -0.00000  -0.00000   0.15468   0.00000
   7        3PX        -0.00000   0.37491   0.03302  -0.00000   0.16204
   8        3PY         0.00000  -0.03302   0.37491   0.00000   0.12365
   9        3PZ        -0.08690  -0.00000  -0.00000   0.44044  -0.00000
  10        4S          0.40935   0.00000  -0.00000   0.29724   0.00000
  11        4PX         0.00000   0.13983   0.01231   0.00000   1.23941
  12        4PY        -0.00000  -0.01231   0.13983   0.00000   0.94575
  13        4PZ        -0.03468  -0.00000   0.00000   0.55491  -0.00000
  14 2   H  1S          0.13618  -0.02307   0.26199  -0.06285  -0.07364
  15        2S          0.07257  -0.03118   0.35403  -0.07815  -0.83275
  16 3   H  1S          0.13618  -0.21535  -0.15097  -0.06285   0.12039
  17        2S          0.07257  -0.29101  -0.20401  -0.07815   1.36148
  18 4   H  1S          0.13618   0.23842  -0.11101  -0.06285  -0.04675
  19        2S          0.07257   0.32219  -0.15001  -0.07815  -0.52873
                          11        12        13        14        15
                           V         V         V         V         V
     Eigenvalues --     0.21436   0.24141   0.57739   0.58791   0.58791
   1 1   P  1S          0.00000   0.04324  -0.04529  -0.00000   0.00000
   2        2S         -0.00000  -0.26024   0.12061   0.00000  -0.00000
   3        2PX         0.07093  -0.00000  -0.00000  -0.01634  -0.33204
   4        2PY        -0.09295   0.00000   0.00000  -0.33204   0.01634
   5        2PZ         0.00000   0.06800  -0.16921  -0.00000   0.00000
   6        3S          0.00000   0.24647  -1.63901  -0.00000   0.00000
   7        3PX        -0.12365   0.00000   0.00000   0.06074   1.23467
   8        3PY         0.16204  -0.00000  -0.00000   1.23467  -0.06074
   9        3PZ        -0.00000  -0.14723   0.65351   0.00000  -0.00000
  10        4S          0.00000   2.02312   2.66490   0.00000  -0.00000
  11        4PX        -0.94575   0.00000  -0.00000  -0.05537  -1.12557
  12        4PY         1.23941  -0.00000   0.00000  -1.12557   0.05537
  13        4PZ        -0.00000  -0.81290  -1.02867  -0.00000   0.00000
  14 2   H  1S         -0.09650  -0.08256  -0.17711   0.18546  -0.00912
  15        2S         -1.09132  -1.16169  -0.53604  -0.13413   0.00660
  16 3   H  1S         -0.01552  -0.08256  -0.17711  -0.10063  -0.15605
  17        2S         -0.17553  -1.16169  -0.53604   0.07278   0.11286
  18 4   H  1S          0.11202  -0.08256  -0.17711  -0.08483   0.16518
  19        2S          1.26684  -1.16169  -0.53604   0.06135  -0.11946
                          16        17        18        19
                           V         V         V         V
     Eigenvalues --     0.66212   1.20571   1.29950   1.29950
   1 1   P  1S         -0.03415  -0.03318  -0.00000   0.00000
   2        2S          0.11044   0.13118   0.00000  -0.00000
   3        2PX        -0.00000  -0.00000   0.13064  -0.12087
   4        2PY        -0.00000  -0.00000   0.12087   0.13064
   5        2PZ         0.30433  -0.09012  -0.00000   0.00000
   6        3S         -1.06826  -0.81656  -0.00000   0.00000
   7        3PX         0.00000   0.00000  -0.39607   0.36644
   8        3PY         0.00000   0.00000  -0.36644  -0.39607
   9        3PZ        -1.10569   0.27593   0.00000  -0.00000
  10        4S          1.55390   2.21270   0.00000  -0.00000
  11        4PX         0.00000  -0.00000   0.69732  -0.64515
  12        4PY        -0.00000  -0.00000   0.64515   0.69732
  13        4PZ         0.77844  -0.60332  -0.00000   0.00000
  14 2   H  1S         -0.03206   0.74281   0.74380   0.80395
  15        2S         -0.30192  -1.23497  -1.00198  -1.08301
  16 3   H  1S         -0.03206   0.74281  -1.06814   0.24217
  17        2S         -0.30192  -1.23497   1.43890  -0.32623
  18 4   H  1S         -0.03206   0.74281   0.32434  -1.04612
  19        2S         -0.30192  -1.23497  -0.43693   1.40924
     Density Matrix:
                           1         2         3         4         5
   1 1   P  1S          2.13240
   2        2S         -0.54207   2.25489
   3        2PX        -0.00000   0.00000   1.96551
   4        2PY        -0.00000   0.00000   0.00000   1.96551
   5        2PZ        -0.00539   0.02888   0.00000  -0.00000   1.99977
   6        3S         -0.04613  -0.06082   0.00000  -0.00000  -0.04149
   7        3PX         0.00000  -0.00000   0.02862  -0.00000   0.00000
   8        3PY        -0.00000   0.00000   0.00000   0.02862  -0.00000
   9        3PZ         0.01075  -0.05588   0.00000   0.00000  -0.03783
  10        4S          0.12583  -0.49363  -0.00000   0.00000  -0.08237
  11        4PX        -0.00000  -0.00000  -0.11546   0.00000   0.00000
  12        4PY         0.00000  -0.00000  -0.00000  -0.11546  -0.00000
  13        4PZ         0.01354  -0.09753   0.00000  -0.00000  -0.30261
  14 2   H  1S          0.01998  -0.08802  -0.00000  -0.11539   0.04497
  15        2S         -0.00687  -0.00018   0.00000  -0.11686   0.03371
  16 3   H  1S          0.01998  -0.08802   0.09993   0.05769   0.04497
  17        2S         -0.00687  -0.00018   0.10120   0.05843   0.03371
  18 4   H  1S          0.01998  -0.08802  -0.09993   0.05769   0.04497
  19        2S         -0.00687  -0.00018  -0.10120   0.05843   0.03371
                           6         7         8         9        10
   6        3S          0.39267
   7        3PX        -0.00000   0.29923
   8        3PY        -0.00000  -0.00000   0.29923
   9        3PZ         0.06607  -0.00000  -0.00000   0.41771
  10        4S          0.39786   0.00000  -0.00000   0.19230   0.52221
  11        4PX         0.00000   0.10003  -0.00000   0.00000   0.00000
  12        4PY         0.00000   0.00000   0.10003   0.00000   0.00000
  13        4PZ         0.14663  -0.00000   0.00000   0.49023   0.29987
  14 2   H  1S          0.08690   0.00000   0.19667  -0.07858   0.07497
  15        2S          0.03710  -0.00000   0.26936  -0.08222   0.01073
  16 3   H  1S          0.08690  -0.17032  -0.09834  -0.07858   0.07497
  17        2S          0.03710  -0.23327  -0.13468  -0.08222   0.01073
  18 4   H  1S          0.08690   0.17032  -0.09834  -0.07858   0.07497
  19        2S          0.03710   0.23327  -0.13468  -0.08222   0.01073
                          11        12        13        14        15
  11        4PX         0.04140
  12        4PY        -0.00000   0.04140
  13        4PZ         0.00000   0.00000   0.61983
  14 2   H  1S         -0.00000   0.07429  -0.07942   0.18351
  15        2S         -0.00000   0.09913  -0.09130   0.21619   0.27607
  16 3   H  1S         -0.06434  -0.03715  -0.07942  -0.02416  -0.06400
  17        2S         -0.08584  -0.04956  -0.09130  -0.06400  -0.10318
  18 4   H  1S          0.06434  -0.03715  -0.07942  -0.02416  -0.06400
  19        2S          0.08584  -0.04956  -0.09130  -0.06400  -0.10318
                          16        17        18        19
  16 3   H  1S          0.18351
  17        2S          0.21619   0.27607
  18 4   H  1S         -0.02416  -0.06400   0.18351
  19        2S         -0.06400  -0.10318   0.21619   0.27607
    Full Mulliken population analysis:
                           1         2         3         4         5
   1 1   P  1S          2.13240
   2        2S         -0.13617   2.25489
   3        2PX         0.00000   0.00000   1.96551
   4        2PY         0.00000   0.00000   0.00000   1.96551
   5        2PZ         0.00000   0.00000   0.00000   0.00000   1.99977
   6        3S         -0.00156  -0.02150   0.00000   0.00000   0.00000
   7        3PX         0.00000   0.00000   0.00866   0.00000   0.00000
   8        3PY         0.00000   0.00000  -0.00000   0.00866   0.00000
   9        3PZ         0.00000   0.00000   0.00000  -0.00000  -0.01144
  10        4S          0.00414  -0.12588   0.00000   0.00000   0.00000
  11        4PX         0.00000   0.00000  -0.00854   0.00000   0.00000
  12        4PY         0.00000   0.00000   0.00000  -0.00854   0.00000
  13        4PZ         0.00000   0.00000   0.00000   0.00000  -0.02238
  14 2   H  1S          0.00001  -0.00098   0.00000  -0.00161  -0.00022
  15        2S         -0.00009  -0.00002  -0.00000  -0.00454  -0.00046
  16 3   H  1S          0.00001  -0.00098  -0.00121  -0.00040  -0.00022
  17        2S         -0.00009  -0.00002  -0.00341  -0.00114  -0.00046
  18 4   H  1S          0.00001  -0.00098  -0.00121  -0.00040  -0.00022
  19        2S         -0.00009  -0.00002  -0.00341  -0.00114  -0.00046
                           6         7         8         9        10
   6        3S          0.39267
   7        3PX         0.00000   0.29923
   8        3PY         0.00000   0.00000   0.29923
   9        3PZ         0.00000  -0.00000   0.00000   0.41771
  10        4S          0.33181   0.00000   0.00000   0.00000   0.52221
  11        4PX         0.00000   0.06468   0.00000   0.00000   0.00000
  12        4PY         0.00000  -0.00000   0.06468  -0.00000   0.00000
  13        4PZ         0.00000  -0.00000  -0.00000   0.31699   0.00000
  14 2   H  1S          0.01529  -0.00000   0.05810   0.00821   0.01948
  15        2S          0.01602   0.00000   0.09915   0.01070   0.00645
  16 3   H  1S          0.01529   0.04358   0.01453   0.00821   0.01948
  17        2S          0.01602   0.07436   0.02479   0.01070   0.00645
  18 4   H  1S          0.01529   0.04358   0.01453   0.00821   0.01948
  19        2S          0.01602   0.07436   0.02479   0.01070   0.00645
                          11        12        13        14        15
  11        4PX         0.04140
  12        4PY         0.00000   0.04140
  13        4PZ         0.00000  -0.00000   0.61983
  14 2   H  1S          0.00000   0.02848   0.01076   0.18351
  15        2S          0.00000   0.06018   0.01959   0.13964   0.27607
  16 3   H  1S          0.02136   0.00712   0.01076  -0.00002  -0.00301
  17        2S          0.04513   0.01504   0.01959  -0.00301  -0.02105
  18 4   H  1S          0.02136   0.00712   0.01076  -0.00002  -0.00301
  19        2S          0.04513   0.01504   0.01959  -0.00301  -0.02105
                          16        17        18        19
  16 3   H  1S          0.18351
  17        2S          0.13964   0.27607
  18 4   H  1S         -0.00002  -0.00301   0.18351
  19        2S         -0.00301  -0.02105   0.13964   0.27607
     Gross orbital populations:
                           1
   1 1   P  1S          1.99856
   2        2S          1.96835
   3        2PX         1.95639
   4        2PY         1.95639
   5        2PZ         1.96389
   6        3S          0.79536
   7        3PX         0.60844
   8        3PY         0.60844
   9        3PZ         0.77998
  10        4S          0.81007
  11        4PX         0.23052
  12        4PY         0.23052
  13        4PZ         1.00551
  14 2   H  1S          0.45461
  15        2S          0.57458
  16 3   H  1S          0.45461
  17        2S          0.57458
  18 4   H  1S          0.45461
  19        2S          0.57458
          Condensed to atoms (all electrons):
               1          2          3          4
     1  P   13.878944   0.344491   0.344491   0.344491
     2  H    0.344491   0.738854  -0.027075  -0.027075
     3  H    0.344491  -0.027075   0.738854  -0.027075
     4  H    0.344491  -0.027075  -0.027075   0.738854
 Mulliken charges:
               1
     1  P    0.087583
     2  H   -0.029194
     3  H   -0.029194
     4  H   -0.029194
 Sum of Mulliken charges =  -0.00000
 Mulliken charges with hydrogens summed into heavy atoms:
               1
     1  P   -0.000000
 Electronic spatial extent (au):  <R**2>=             54.6655
 Charge=             -0.0000 electrons
 Dipole moment (field-independent basis, Debye):
    X=              0.0000    Y=             -0.0000    Z=             -1.5815  Tot=              1.5815
 Quadrupole moment (field-independent basis, Debye-Ang):
   XX=            -14.5845   YY=            -14.5845   ZZ=            -18.5828
   XY=             -0.0000   XZ=             -0.0000   YZ=              0.0000
 Traceless Quadrupole moment (field-independent basis, Debye-Ang):
   XX=              1.3328   YY=              1.3328   ZZ=             -2.6655
   XY=             -0.0000   XZ=             -0.0000   YZ=              0.0000
 Octapole moment (field-independent basis, Debye-Ang**2):
  XXX=              0.0000  YYY=             -0.2577  ZZZ=             -2.7334  XYY=              0.0000
  XXY=              0.2577  XXZ=             -0.3645  XZZ=             -0.0000  YZZ=             -0.0000
  YYZ=             -0.3645  XYZ=              0.0000
 Hexadecapole moment (field-independent basis, Debye-Ang**3):
 XXXX=            -31.2913 YYYY=            -31.2913 ZZZZ=            -32.5239 XXXY=             -0.0000
 XXXZ=             -0.0000 YYYX=             -0.0000 YYYZ=             -0.0574 ZZZX=             -0.0000
 ZZZY=              0.0000 XXYY=            -10.4304 XXZZ=            -10.6779 YYZZ=            -10.6779
 XXYZ=              0.0574 YYXZ=             -0.0000 ZZXY=             -0.0000
 N-N= 1.835935993273D+01 E-N=-8.485038681244D+02  KE= 3.407000619219D+02
 Orbital energies and kinetic energies (alpha):
                                 1                 2
   1         O               -79.363721        105.408868
   2         O                -7.444244         16.227733
   3         O                -5.330418         14.553937
   4         O                -5.330418         14.553937
   5         O                -5.325796         14.586101
   6         O                -0.883428          1.525940
   7         O                -0.563391          1.091829
   8         O                -0.563391          1.091829
   9         O                -0.338425          1.309858
  10         V                 0.214365          0.744967
  11         V                 0.214365          0.744967
  12         V                 0.241406          1.283417
  13         V                 0.577389          1.748521
  14         V                 0.587911          2.375848
  15         V                 0.587911          2.375848
  16         V                 0.662119          2.450944
  17         V                 1.205714          2.587701
  18         V                 1.299500          2.696470
  19         V                 1.299500          2.696470
 Total kinetic energy from orbitals= 3.407000619219D+02
 Calling FoFJK, ICntrl=      2127 FMM=F ISym2X=1 I1Cent= 0 IOpClX= 0 NMat=1 NMatS=1 NMatT=0.
 ***** Axes restored to original set *****
 -------------------------------------------------------------------
 Center     Atomic                   Forces (Hartrees/Bohr)
 Number     Number              X              Y              Z
 -------------------------------------------------------------------
      1       15          -0.070108367    0.000000843    0.000000000
      2        1           0.023369212   -0.020298420   -0.000000000
      3        1           0.023369578    0.010148789    0.017578704
      4        1           0.023369578    0.010148789   -0.017578704
 -------------------------------------------------------------------
 Cartesian Forces:  Max     0.070108367 RMS     0.025478129

 GradGradGradGradGradGradGradGradGradGradGradGradGradGradGradGradGradGrad
 Berny optimization.
 FormGI is forming the generalized inverse of G from B-inverse, IUseBI=4.
 Internal  Forces:  Max     0.029354558 RMS     0.023680948
 Search for a local minimum.
 Step number   1 out of a maximum of   20
 All quantities printed in internal units (Hartrees-Bohrs-Radians)
 Mixed Optimization -- RFO/linear search
 Second derivative matrix not updated -- first step.
 The second derivative matrix:
                          R1        R2        R3        A1        A2
           R1           0.25638
           R2           0.00000   0.25638
           R3           0.00000   0.00000   0.25638
           A1           0.00000   0.00000   0.00000   0.16000
           A2           0.00000   0.00000   0.00000   0.00000   0.16000
           A3           0.00000   0.00000   0.00000   0.00000   0.00000
           D1           0.00000   0.00000   0.00000   0.00000   0.00000
                          A3        D1
           A3           0.16000
           D1           0.00000   0.01162
 ITU=  0
     Eigenvalues ---    0.05728   0.16000   0.16000   0.25638   0.25638
     Eigenvalues ---    0.25638
 RFO step:  Lambda=-2.54827749D-02 EMin= 5.72771566D-02
 Linear search not attempted -- first point.
 Maximum step size (   0.300) exceeded in Quadratic search.
    -- Step size scaled by   0.952
 Iteration  1 RMS(Cart)=  0.10071266 RMS(Int)=  0.05461996
 Iteration  2 RMS(Cart)=  0.05134344 RMS(Int)=  0.02033983
 Iteration  3 RMS(Cart)=  0.00268728 RMS(Int)=  0.02019327
 Iteration  4 RMS(Cart)=  0.00012707 RMS(Int)=  0.02019307
 Iteration  5 RMS(Cart)=  0.00000578 RMS(Int)=  0.02019307
 Iteration  6 RMS(Cart)=  0.00000027 RMS(Int)=  0.02019307
 ClnCor:  largest displacement from symmetrization is 1.68D-02 for atom     3.
 Variable       Old X    -DE/DX   Delta X   Delta X   Delta X     New X
                                 (Linear)    (Quad)   (Total)
    R1        2.55113   0.02693   0.00000   0.09097   0.09369   2.64482
    R2        2.55113   0.02693   0.00000   0.09097   0.09369   2.64482
    R3        2.55113   0.02693   0.00000   0.09097   0.09369   2.64482
    A1        1.91063  -0.00300   0.00000  -0.11720  -0.16224   1.74840
    A2        1.91063  -0.02097   0.00000  -0.15858  -0.16224   1.74840
    A3        1.91063  -0.02097   0.00000  -0.15858  -0.16224   1.74840
    D1       -2.09440   0.02935   0.00000   0.33776   0.30734  -1.78705
         Item               Value     Threshold  Converged?
 Maximum Force            0.029355     0.000450     NO 
 RMS     Force            0.023681     0.000300     NO 
 Maximum Displacement     0.282740     0.001800     NO 
 RMS     Displacement     0.130351     0.001200     NO 
 Predicted change in Energy=-1.363952D-02
 GradGradGradGradGradGradGradGradGradGradGradGradGradGradGradGradGradGrad

                          Input orientation:                          
 ---------------------------------------------------------------------
 Center     Atomic      Atomic             Coordinates (Angstroms)
 Number     Number       Type             X           Y           Z
 ---------------------------------------------------------------------
      1         15           0        0.150927    0.595630    0.000000
      2          1           0        0.800707   -0.643960   -0.004439
      3          1           0        0.800730    1.211569    1.075730
      4          1           0        0.800730    1.219258   -1.071291
 ---------------------------------------------------------------------
                    Distance matrix (angstroms):
                    1          2          3          4
     1  P    0.000000
     2  H    1.399578   0.000000
     3  H    1.399578   2.147034   0.000000
     4  H    1.399578   2.147034   2.147034   0.000000
 Stoichiometry    H3P
 Framework group  C3V[C3(P),3SGV(H)]
 Deg. of freedom     2
 Full point group                 C3V     NOp   6
 Omega: Change in point group or standard orientation.

 Old FWG=C03  [C3(P1),X(H3)]
 New FWG=C03V [C3(P1),3SGV(H1)]
 Largest Abelian subgroup         CS      NOp   2
 Largest concise Abelian subgroup CS      NOp   2
                         Standard orientation:                         
 ---------------------------------------------------------------------
 Center     Atomic      Atomic             Coordinates (Angstroms)
 Number     Number       Type             X           Y           Z
 ---------------------------------------------------------------------
      1         15           0       -0.000000    0.000000    0.108299
      2          1           0       -0.000000    1.239591   -0.541496
      3          1           0       -1.073517   -0.619795   -0.541496
      4          1           0        1.073517   -0.619795   -0.541496
 ---------------------------------------------------------------------
 Rotational constants (GHZ):         144.9741288         144.9741288         108.7812871
 Standard basis: 3-21G (6D, 7F)
 There are    14 symmetry adapted cartesian basis functions of A'  symmetry.
 There are     5 symmetry adapted cartesian basis functions of A"  symmetry.
 There are    14 symmetry adapted basis functions of A'  symmetry.
 There are     5 symmetry adapted basis functions of A"  symmetry.
    19 basis functions,    36 primitive gaussians,    19 cartesian basis functions
     9 alpha electrons        9 beta electrons
       nuclear repulsion energy        17.7538005404 Hartrees.
 NAtoms=    4 NActive=    4 NUniq=    2 SFac= 4.00D+00 NAtFMM=   60 NAOKFM=F Big=F
 Integral buffers will be    131072 words long.
 Raffenetti 1 integral format.
 Two-electron integral symmetry is turned on.
 One-electron integrals computed using PRISM.
 NBasis=    19 RedAO= T EigKep=  2.53D-02  NBF=    14     5
 NBsUse=    19 1.00D-06 EigRej= -1.00D+00 NBFU=    14     5
 Initial guess from the checkpoint file:  "PH3_opt.chk"
 B after Tr=    -0.000000    0.000000   -0.000000
         Rot=    1.000000   -0.000000   -0.000000    0.000000 Ang=   0.00 deg.
 Initial guess orbital symmetries:
       Occupied  (A1) (A1) (E) (E) (A1) (A1) (E) (E) (A1)
       Virtual   (E) (E) (A1) (A1) (E) (E) (A1) (A1) (E) (E)
 ExpMin= 1.23D-01 ExpMax= 1.05D+03 ExpMxC= 1.05D+03 IAcc=3 IRadAn=         5 AccDes= 0.00D+00
 Harris functional with IExCor=  205 and IRadAn=       5 diagonalized for initial guess.
 HarFok:  IExCor=  205 AccDes= 0.00D+00 IRadAn=         5 IDoV= 1 UseB2=F ITyADJ=14
 ICtDFT=  3500011 ScaDFX=  1.000000  1.000000  1.000000  1.000000
 FoFCou: FMM=F IPFlag=           0 FMFlag=      100000 FMFlg1=           0
         NFxFlg=           0 DoJE=T BraDBF=F KetDBF=T FulRan=T
         wScrn=  0.000000 ICntrl=       500 IOpCl=  0 I1Cent=   200000004 NGrid=           0
         NMat0=    1 NMatS0=      1 NMatT0=    0 NMatD0=    1 NMtDS0=    0 NMtDT0=    0
 Petite list used in FoFCou.
 Keep R1 ints in memory in symmetry-blocked form, NReq=823325.
 Requested convergence on RMS density matrix=1.00D-08 within 128 cycles.
 Requested convergence on MAX density matrix=1.00D-06.
 Requested convergence on             energy=1.00D-06.
 No special actions if energy rises.
 An orbital has undefined symmetry, so N**3 symmetry is turned off.
 SCF Done:  E(RHF) =  -340.702790910     A.U. after   10 cycles
            NFock= 10  Conv=0.18D-08     -V/T= 2.0005
 Calling FoFJK, ICntrl=      2127 FMM=F ISym2X=1 I1Cent= 0 IOpClX= 0 NMat=1 NMatS=1 NMatT=0.
 ***** Axes restored to original set *****
 -------------------------------------------------------------------
 Center     Atomic                   Forces (Hartrees/Bohr)
 Number     Number              X              Y              Z
 -------------------------------------------------------------------
      1       15          -0.025202791    0.000000303    0.000000000
      2        1           0.008400880   -0.004208433   -0.000015070
      3        1           0.008400956    0.002091014    0.003652058
      4        1           0.008400956    0.002117116   -0.003636988
 -------------------------------------------------------------------
 Cartesian Forces:  Max     0.025202791 RMS     0.008660439

 GradGradGradGradGradGradGradGradGradGradGradGradGradGradGradGradGradGrad
 Berny optimization.
 Using GEDIIS/GDIIS optimizer.
 FormGI is forming the generalized inverse of G from B-inverse, IUseBI=4.
 Internal  Forces:  Max     0.009817311 RMS     0.007936495
 Search for a local minimum.
 Step number   2 out of a maximum of   20
 All quantities printed in internal units (Hartrees-Bohrs-Radians)
 Mixed Optimization -- RFO/linear search
 Update second derivatives using D2CorX and points    1    2
 DE= -1.70D-02 DEPred=-1.36D-02 R= 1.25D+00
 TightC=F SS=  1.41D+00  RLast= 4.47D-01 DXNew= 5.0454D-01 1.3408D+00
 Trust test= 1.25D+00 RLast= 4.47D-01 DXMaxT set to 5.05D-01
 The second derivative matrix:
                          R1        R2        R3        A1        A2
           R1           0.25212
           R2          -0.00426   0.25212
           R3          -0.00426  -0.00426   0.25212
           A1           0.03091   0.03091   0.03091   0.12711
           A2           0.01662   0.01662   0.01662  -0.03316   0.13509
           A3           0.01662   0.01662   0.01662  -0.03316  -0.02491
           D1           0.02240   0.02240   0.02240   0.00504  -0.01084
                          A3        D1
           A3           0.13509
           D1          -0.01084   0.04057
 ITU=  1  0
 Use linear search instead of GDIIS.
     Eigenvalues ---    0.06100   0.13841   0.16000   0.24912   0.25638
     Eigenvalues ---    0.25638
 RFO step:  Lambda=-1.54633177D-04 EMin= 6.09978997D-02
 Quartic linear search produced a step of  0.34855.
 Iteration  1 RMS(Cart)=  0.05573435 RMS(Int)=  0.00900717
 Iteration  2 RMS(Cart)=  0.00317896 RMS(Int)=  0.00845421
 Iteration  3 RMS(Cart)=  0.00001426 RMS(Int)=  0.00845420
 Iteration  4 RMS(Cart)=  0.00000023 RMS(Int)=  0.00845420
 ClnCor:  largest displacement from symmetrization is 1.79D-02 for atom     4.
 Variable       Old X    -DE/DX   Delta X   Delta X   Delta X     New X
                                 (Linear)    (Quad)   (Total)
    R1        2.64482   0.00763   0.03266  -0.00040   0.03628   2.68110
    R2        2.64482   0.00763   0.03266  -0.00040   0.03628   2.68110
    R3        2.64482   0.00763   0.03266  -0.00040   0.03628   2.68110
    A1        1.74840  -0.00337  -0.05655   0.01533  -0.06907   1.67933
    A2        1.74840  -0.00982  -0.05655  -0.02000  -0.06907   1.67933
    A3        1.74840  -0.00982  -0.05655  -0.02000  -0.06907   1.67933
    D1       -1.78705   0.00789   0.10712  -0.00702   0.09448  -1.69258
         Item               Value     Threshold  Converged?
 Maximum Force            0.009817     0.000450     NO 
 RMS     Force            0.007936     0.000300     NO 
 Maximum Displacement     0.107801     0.001800     NO 
 RMS     Displacement     0.052716     0.001200     NO 
 Predicted change in Energy=-2.133468D-03
 GradGradGradGradGradGradGradGradGradGradGradGradGradGradGradGradGradGrad

                          Input orientation:                          
 ---------------------------------------------------------------------
 Center     Atomic      Atomic             Coordinates (Angstroms)
 Number     Number       Type             X           Y           Z
 ---------------------------------------------------------------------
      1         15           0        0.093881    0.595631    0.000000
      2          1           0        0.818859   -0.623922   -0.004367
      3          1           0        0.818881    1.201612    1.058340
      4          1           0        0.818881    1.209176   -1.053973
 ---------------------------------------------------------------------
                    Distance matrix (angstroms):
                    1          2          3          4
     1  P    0.000000
     2  H    1.418775   0.000000
     3  H    1.418775   2.112326   0.000000
     4  H    1.418775   2.112326   2.112326   0.000000
 Stoichiometry    H3P
 Framework group  C3V[C3(P),3SGV(H)]
 Deg. of freedom     2
 Full point group                 C3V     NOp   6
 Largest Abelian subgroup         CS      NOp   2
 Largest concise Abelian subgroup CS      NOp   2
                         Standard orientation:                         
 ---------------------------------------------------------------------
 Center     Atomic      Atomic             Coordinates (Angstroms)
 Number     Number       Type             X           Y           Z
 ---------------------------------------------------------------------
      1         15           0        0.000000   -0.000000    0.120832
      2          1           0       -0.000000    1.219552   -0.604160
      3          1           0       -1.056163   -0.609776   -0.604160
      4          1           0        1.056163   -0.609776   -0.604160
 ---------------------------------------------------------------------
 Rotational constants (GHZ):         136.7267743         136.7267743         112.3854288
 Standard basis: 3-21G (6D, 7F)
 There are    14 symmetry adapted cartesian basis functions of A'  symmetry.
 There are     5 symmetry adapted cartesian basis functions of A"  symmetry.
 There are    14 symmetry adapted basis functions of A'  symmetry.
 There are     5 symmetry adapted basis functions of A"  symmetry.
    19 basis functions,    36 primitive gaussians,    19 cartesian basis functions
     9 alpha electrons        9 beta electrons
       nuclear repulsion energy        17.5357387258 Hartrees.
 NAtoms=    4 NActive=    4 NUniq=    2 SFac= 4.00D+00 NAtFMM=   60 NAOKFM=F Big=F
 Integral buffers will be    131072 words long.
 Raffenetti 1 integral format.
 Two-electron integral symmetry is turned on.
 One-electron integrals computed using PRISM.
 NBasis=    19 RedAO= T EigKep=  2.29D-02  NBF=    14     5
 NBsUse=    19 1.00D-06 EigRej= -1.00D+00 NBFU=    14     5
 Initial guess from the checkpoint file:  "PH3_opt.chk"
 B after Tr=     0.000000    0.000000    0.000000
         Rot=    1.000000    0.000000   -0.000000   -0.000000 Ang=   0.00 deg.
 Initial guess orbital symmetries:
       Occupied  (A1) (A1) (E) (E) (A1) (A1) (E) (E) (A1)
       Virtual   (E) (E) (A1) (E) (E) (A1) (A1) (A1) (E) (E)
 ExpMin= 1.23D-01 ExpMax= 1.05D+03 ExpMxC= 1.05D+03 IAcc=3 IRadAn=         5 AccDes= 0.00D+00
 Harris functional with IExCor=  205 and IRadAn=       5 diagonalized for initial guess.
 HarFok:  IExCor=  205 AccDes= 0.00D+00 IRadAn=         5 IDoV= 1 UseB2=F ITyADJ=14
 ICtDFT=  3500011 ScaDFX=  1.000000  1.000000  1.000000  1.000000
 FoFCou: FMM=F IPFlag=           0 FMFlag=      100000 FMFlg1=           0
         NFxFlg=           0 DoJE=T BraDBF=F KetDBF=T FulRan=T
         wScrn=  0.000000 ICntrl=       500 IOpCl=  0 I1Cent=   200000004 NGrid=           0
         NMat0=    1 NMatS0=      1 NMatT0=    0 NMatD0=    1 NMtDS0=    0 NMtDT0=    0
 Petite list used in FoFCou.
 Keep R1 ints in memory in symmetry-blocked form, NReq=823325.
 Requested convergence on RMS density matrix=1.00D-08 within 128 cycles.
 Requested convergence on MAX density matrix=1.00D-06.
 Requested convergence on             energy=1.00D-06.
 No special actions if energy rises.
 An orbital has undefined symmetry, so N**3 symmetry is turned off.
 SCF Done:  E(RHF) =  -340.704501273     A.U. after    9 cycles
            NFock=  9  Conv=0.95D-09     -V/T= 2.0006
 Calling FoFJK, ICntrl=      2127 FMM=F ISym2X=1 I1Cent= 0 IOpClX= 0 NMat=1 NMatS=1 NMatT=0.
 ***** Axes restored to original set *****
 -------------------------------------------------------------------
 Center     Atomic                   Forces (Hartrees/Bohr)
 Number     Number              X              Y              Z
 -------------------------------------------------------------------
      1       15          -0.002644687    0.000000032    0.000000000
      2        1           0.000881547   -0.001269146   -0.000004545
      3        1           0.000881570    0.000630621    0.001101376
      4        1           0.000881570    0.000638493   -0.001096831
 -------------------------------------------------------------------
 Cartesian Forces:  Max     0.002644687 RMS     0.001086201

 GradGradGradGradGradGradGradGradGradGradGradGradGradGradGradGradGradGrad
 Berny optimization.
 Using GEDIIS/GDIIS optimizer.
 FormGI is forming the generalized inverse of G from B-inverse, IUseBI=4.
 Internal  Forces:  Max     0.001541409 RMS     0.001016763
 Search for a local minimum.
 Step number   3 out of a maximum of   20
 All quantities printed in internal units (Hartrees-Bohrs-Radians)
 Mixed Optimization -- RFO/linear search
 Update second derivatives using D2CorX and points    2    3
 DE= -1.71D-03 DEPred=-2.13D-03 R= 8.02D-01
 TightC=F SS=  1.41D+00  RLast= 1.65D-01 DXNew= 8.4853D-01 4.9463D-01
 Trust test= 8.02D-01 RLast= 1.65D-01 DXMaxT set to 5.05D-01
 The second derivative matrix:
                          R1        R2        R3        A1        A2
           R1           0.24404
           R2          -0.01234   0.24404
           R3          -0.01234  -0.01234   0.24404
           A1           0.02525   0.02525   0.02525   0.13071
           A2           0.01113   0.01113   0.01113  -0.02324   0.15645
           A3           0.01113   0.01113   0.01113  -0.02324  -0.00355
           D1           0.01493   0.01493   0.01493  -0.00231  -0.01979
                          A3        D1
           A3           0.15645
           D1          -0.01979   0.03425
 ITU=  1  1  0
 Use linear search instead of GDIIS.
     Eigenvalues ---    0.08152   0.15733   0.16000   0.22687   0.25638
     Eigenvalues ---    0.25638
 RFO step:  Lambda=-1.99505913D-05 EMin= 8.15215243D-02
 Quartic linear search produced a step of  0.06955.
 Iteration  1 RMS(Cart)=  0.00355154 RMS(Int)=  0.00013926
 Iteration  2 RMS(Cart)=  0.00000674 RMS(Int)=  0.00013914
 Iteration  3 RMS(Cart)=  0.00000000 RMS(Int)=  0.00013914
 ClnCor:  largest displacement from symmetrization is 9.67D-06 for atom     4.
 Variable       Old X    -DE/DX   Delta X   Delta X   Delta X     New X
                                 (Linear)    (Quad)   (Total)
    R1        2.68110   0.00154   0.00252   0.00470   0.00722   2.68832
    R2        2.68110   0.00154   0.00252   0.00470   0.00722   2.68832
    R3        2.68110   0.00154   0.00252   0.00470   0.00722   2.68832
    A1        1.67933  -0.00008  -0.00480   0.00270  -0.00235   1.67698
    A2        1.67933  -0.00020  -0.00480   0.00249  -0.00235   1.67698
    A3        1.67933  -0.00020  -0.00480   0.00249  -0.00235   1.67698
    D1       -1.69258   0.00014   0.00657  -0.00335   0.00296  -1.68962
         Item               Value     Threshold  Converged?
 Maximum Force            0.001541     0.000450     NO 
 RMS     Force            0.001017     0.000300     NO 
 Maximum Displacement     0.005840     0.001800     NO 
 RMS     Displacement     0.003548     0.001200     NO 
 Predicted change in Energy=-1.786675D-05
 GradGradGradGradGradGradGradGradGradGradGradGradGradGradGradGradGradGrad

                          Input orientation:                          
 ---------------------------------------------------------------------
 Center     Atomic      Atomic             Coordinates (Angstroms)
 Number     Number       Type             X           Y           Z
 ---------------------------------------------------------------------
      1         15           0        0.090790    0.595631    0.000000
      2          1           0        0.819890   -0.625917   -0.004374
      3          1           0        0.819912    1.202603    1.060071
      4          1           0        0.819912    1.210180   -1.055697
 ---------------------------------------------------------------------
                    Distance matrix (angstroms):
                    1          2          3          4
     1  P    0.000000
     2  H    1.422598   0.000000
     3  H    1.422598   2.115782   0.000000
     4  H    1.422598   2.115782   2.115782   0.000000
 Stoichiometry    H3P
 Framework group  C3V[C3(P),3SGV(H)]
 Deg. of freedom     2
 Full point group                 C3V     NOp   6
 Largest Abelian subgroup         CS      NOp   2
 Largest concise Abelian subgroup CS      NOp   2
                         Standard orientation:                         
 ---------------------------------------------------------------------
 Center     Atomic      Atomic             Coordinates (Angstroms)
 Number     Number       Type             X           Y           Z
 ---------------------------------------------------------------------
      1         15           0       -0.000000    0.000000    0.121519
      2          1           0        0.000000    1.221547   -0.607595
      3          1           0       -1.057891   -0.610774   -0.607595
      4          1           0        1.057891   -0.610774   -0.607595
 ---------------------------------------------------------------------
 Rotational constants (GHZ):         135.8494690         135.8494690         112.0186386
 Standard basis: 3-21G (6D, 7F)
 There are    14 symmetry adapted cartesian basis functions of A'  symmetry.
 There are     5 symmetry adapted cartesian basis functions of A"  symmetry.
 There are    14 symmetry adapted basis functions of A'  symmetry.
 There are     5 symmetry adapted basis functions of A"  symmetry.
    19 basis functions,    36 primitive gaussians,    19 cartesian basis functions
     9 alpha electrons        9 beta electrons
       nuclear repulsion energy        17.4894050513 Hartrees.
 NAtoms=    4 NActive=    4 NUniq=    2 SFac= 4.00D+00 NAtFMM=   60 NAOKFM=F Big=F
 Integral buffers will be    131072 words long.
 Raffenetti 1 integral format.
 Two-electron integral symmetry is turned on.
 One-electron integrals computed using PRISM.
 NBasis=    19 RedAO= T EigKep=  2.30D-02  NBF=    14     5
 NBsUse=    19 1.00D-06 EigRej= -1.00D+00 NBFU=    14     5
 Initial guess from the checkpoint file:  "PH3_opt.chk"
 B after Tr=    -0.000000    0.000000    0.000000
         Rot=    1.000000   -0.000000   -0.000000    0.000000 Ang=   0.00 deg.
 Initial guess orbital symmetries:
       Occupied  (A1) (A1) (E) (E) (A1) (A1) (E) (E) (A1)
       Virtual   (E) (E) (A1) (E) (E) (A1) (A1) (A1) (E) (E)
 Keep R1 ints in memory in symmetry-blocked form, NReq=823325.
 Requested convergence on RMS density matrix=1.00D-08 within 128 cycles.
 Requested convergence on MAX density matrix=1.00D-06.
 Requested convergence on             energy=1.00D-06.
 No special actions if energy rises.
 An orbital has undefined symmetry, so N**3 symmetry is turned off.
 SCF Done:  E(RHF) =  -340.704519276     A.U. after    7 cycles
            NFock=  7  Conv=0.78D-08     -V/T= 2.0007
 Calling FoFJK, ICntrl=      2127 FMM=F ISym2X=1 I1Cent= 0 IOpClX= 0 NMat=1 NMatS=1 NMatT=0.
 ***** Axes restored to original set *****
 -------------------------------------------------------------------
 Center     Atomic                   Forces (Hartrees/Bohr)
 Number     Number              X              Y              Z
 -------------------------------------------------------------------
      1       15          -0.000105537    0.000000001   -0.000000000
      2        1           0.000035179   -0.000028287   -0.000000101
      3        1           0.000035179    0.000014055    0.000024548
      4        1           0.000035179    0.000014231   -0.000024447
 -------------------------------------------------------------------
 Cartesian Forces:  Max     0.000105537 RMS     0.000037916

 GradGradGradGradGradGradGradGradGradGradGradGradGradGradGradGradGradGrad
 Berny optimization.
 Using GEDIIS/GDIIS optimizer.
 FormGI is forming the generalized inverse of G from B-inverse, IUseBI=4.
 Internal  Forces:  Max     0.000042319 RMS     0.000033026
 Search for a local minimum.
 Step number   4 out of a maximum of   20
 All quantities printed in internal units (Hartrees-Bohrs-Radians)
 Mixed Optimization -- En-DIIS/RFO-DIIS
 Update second derivatives using D2CorX and points    2    3    4
 DE= -1.80D-05 DEPred=-1.79D-05 R= 1.01D+00
 TightC=F SS=  1.41D+00  RLast= 1.35D-02 DXNew= 8.4853D-01 4.0465D-02
 Trust test= 1.01D+00 RLast= 1.35D-02 DXMaxT set to 5.05D-01
 The second derivative matrix:
                          R1        R2        R3        A1        A2
           R1           0.24318
           R2          -0.01320   0.24318
           R3          -0.01320  -0.01320   0.24318
           A1           0.00728   0.00728   0.00728   0.12877
           A2           0.00888   0.00888   0.00888  -0.02046   0.15723
           A3           0.00888   0.00888   0.00888  -0.02046  -0.00277
           D1          -0.00279  -0.00279  -0.00279  -0.00770  -0.01756
                          A3        D1
           A3           0.15723
           D1          -0.01756   0.02559
 ITU=  1  1  1  0
 Use linear search instead of GDIIS.
     Eigenvalues ---    0.08163   0.15715   0.16000   0.22446   0.25638
     Eigenvalues ---    0.25638
 RFO step:  Lambda=-1.19383310D-08 EMin= 8.16325229D-02
 Quartic linear search produced a step of  0.03408.
 Iteration  1 RMS(Cart)=  0.00017121 RMS(Int)=  0.00000010
 Iteration  2 RMS(Cart)=  0.00000004 RMS(Int)=  0.00000009
 ClnCor:  largest displacement from symmetrization is 5.80D-06 for atom     4.
 Variable       Old X    -DE/DX   Delta X   Delta X   Delta X     New X
                                 (Linear)    (Quad)   (Total)
    R1        2.68832   0.00004   0.00025  -0.00002   0.00023   2.68855
    R2        2.68832   0.00004   0.00025  -0.00002   0.00023   2.68855
    R3        2.68832   0.00004   0.00025  -0.00002   0.00023   2.68855
    A1        1.67698  -0.00001  -0.00008  -0.00014  -0.00023   1.67675
    A2        1.67698  -0.00003  -0.00008  -0.00015  -0.00023   1.67675
    A3        1.67698  -0.00003  -0.00008  -0.00015  -0.00023   1.67675
    D1       -1.68962   0.00002   0.00010   0.00018   0.00029  -1.68933
         Item               Value     Threshold  Converged?
 Maximum Force            0.000042     0.000450     YES
 RMS     Force            0.000033     0.000300     YES
 Maximum Displacement     0.000387     0.001800     YES
 RMS     Displacement     0.000171     0.001200     YES
 Predicted change in Energy=-2.516407D-08
 Optimization completed.
    -- Stationary point found.
                           ----------------------------
                           !   Optimized Parameters   !
                           ! (Angstroms and Degrees)  !
 --------------------------                            --------------------------
 ! Name  Definition              Value          Derivative Info.                !
 --------------------------------------------------------------------------------
 ! R1    R(1,2)                  1.4226         -DE/DX =    0.0                 !
 ! R2    R(1,3)                  1.4226         -DE/DX =    0.0                 !
 ! R3    R(1,4)                  1.4226         -DE/DX =    0.0                 !
 ! A1    A(2,1,3)               96.0837         -DE/DX =    0.0                 !
 ! A2    A(2,1,4)               96.0837         -DE/DX =    0.0                 !
 ! A3    A(3,1,4)               96.0837         -DE/DX =    0.0                 !
 ! D1    D(2,1,4,3)            -96.8081         -DE/DX =    0.0                 !
 --------------------------------------------------------------------------------
 GradGradGradGradGradGradGradGradGradGradGradGradGradGradGradGradGradGrad

                          Input orientation:                          
 ---------------------------------------------------------------------
 Center     Atomic      Atomic             Coordinates (Angstroms)
 Number     Number       Type             X           Y           Z
 ---------------------------------------------------------------------
      1         15           0        0.090790    0.595631    0.000000
      2          1           0        0.819890   -0.625917   -0.004374
      3          1           0        0.819912    1.202603    1.060071
      4          1           0        0.819912    1.210180   -1.055697
 ---------------------------------------------------------------------
                    Distance matrix (angstroms):
                    1          2          3          4
     1  P    0.000000
     2  H    1.422598   0.000000
     3  H    1.422598   2.115782   0.000000
     4  H    1.422598   2.115782   2.115782   0.000000
 Stoichiometry    H3P
 Framework group  C3V[C3(P),3SGV(H)]
 Deg. of freedom     2
 Full point group                 C3V     NOp   6
 Largest Abelian subgroup         CS      NOp   2
 Largest concise Abelian subgroup CS      NOp   2
                         Standard orientation:                         
 ---------------------------------------------------------------------
 Center     Atomic      Atomic             Coordinates (Angstroms)
 Number     Number       Type             X           Y           Z
 ---------------------------------------------------------------------
      1         15           0        0.000000    0.000000    0.121519
      2          1           0       -0.000000    1.221547   -0.607595
      3          1           0       -1.057891   -0.610774   -0.607595
      4          1           0        1.057891   -0.610774   -0.607595
 ---------------------------------------------------------------------
 Rotational constants (GHZ):         135.8494690         135.8494690         112.0186386

 **********************************************************************

            Population analysis using the SCF Density.

 **********************************************************************

 Orbital symmetries:
       Occupied  (A1) (A1) (E) (E) (A1) (A1) (E) (E) (A1)
       Virtual   (E) (E) (A1) (E) (E) (A1) (A1) (A1) (E) (E)
 The electronic state is 1-A1.
 Alpha  occ. eigenvalues --  -79.38629  -7.46103  -5.34525  -5.34525  -5.34249
 Alpha  occ. eigenvalues --   -0.87579  -0.52734  -0.52734  -0.38055
 Alpha virt. eigenvalues --    0.18103   0.18103   0.26458   0.60381   0.60381
 Alpha virt. eigenvalues --    0.63275   0.70958   1.20672   1.26127   1.26127
     Molecular Orbital Coefficients:
                           1         2         3         4         5
                        (A1)--O   (A1)--O   (E)--O    (E)--O    (A1)--O
     Eigenvalues --   -79.38629  -7.46103  -5.34525  -5.34525  -5.34249
   1 1   P  1S          0.98703  -0.29568  -0.00000  -0.00000  -0.00443
   2        2S          0.04868   0.99736   0.00000   0.00000   0.01537
   3        2PX        -0.00000  -0.00000   0.95581  -0.18142  -0.00000
   4        2PY        -0.00000  -0.00000   0.18142   0.95581  -0.00000
   5        2PZ        -0.00018  -0.01291   0.00000   0.00000   0.97339
   6        3S         -0.01536   0.12903   0.00000  -0.00000  -0.00502
   7        3PX        -0.00000   0.00000   0.08641  -0.01640  -0.00000
   8        3PY        -0.00000  -0.00000   0.01640   0.08641  -0.00000
   9        3PZ         0.00033  -0.00534   0.00000   0.00000   0.08627
  10        4S          0.01033  -0.08346  -0.00000   0.00000   0.01383
  11        4PX         0.00000  -0.00000  -0.02961   0.00562   0.00000
  12        4PY        -0.00000  -0.00000  -0.00562  -0.02961   0.00000
  13        4PZ        -0.00186   0.01946  -0.00000  -0.00000  -0.03091
  14 2   H  1S          0.00085  -0.00460  -0.00109  -0.00576   0.00328
  15        2S         -0.00220   0.02016   0.00164   0.00863  -0.00762
  16 3   H  1S          0.00085  -0.00460   0.00554   0.00193   0.00328
  17        2S         -0.00220   0.02016  -0.00829  -0.00290  -0.00762
  18 4   H  1S          0.00085  -0.00460  -0.00444   0.00383   0.00328
  19        2S         -0.00220   0.02016   0.00665  -0.00573  -0.00762
                           6         7         8         9        10
                        (A1)--O   (E)--O    (E)--O    (A1)--O   (E)--V
     Eigenvalues --    -0.87579  -0.52734  -0.52734  -0.38055   0.18103
   1 1   P  1S          0.06241  -0.00000  -0.00000   0.03001   0.00000
   2        2S         -0.33690   0.00000   0.00000  -0.16679  -0.00000
   3        2PX         0.00000  -0.01270  -0.18417  -0.00000  -0.13472
   4        2PY        -0.00000  -0.18417   0.01270  -0.00000  -0.00775
   5        2PZ         0.05647  -0.00000   0.00000  -0.20913   0.00000
   6        3S          0.37770  -0.00000  -0.00000   0.20625   0.00000
   7        3PX        -0.00000   0.02506   0.36333   0.00000   0.24192
   8        3PY         0.00000   0.36333  -0.02506   0.00000   0.01392
   9        3PZ        -0.10806  -0.00000  -0.00000   0.41178  -0.00000
  10        4S          0.46187   0.00000   0.00000   0.38756  -0.00000
  11        4PX        -0.00000   0.01210   0.17545   0.00000   1.27130
  12        4PY         0.00000   0.17545  -0.01210   0.00000   0.07316
  13        4PZ        -0.06413  -0.00000  -0.00000   0.46480   0.00000
  14 2   H  1S          0.12782   0.25022  -0.01726  -0.08312  -0.00780
  15        2S          0.05703   0.37431  -0.02582  -0.11240  -0.06617
  16 3   H  1S          0.12782  -0.14005  -0.20807  -0.08312   0.12122
  17        2S          0.05703  -0.20951  -0.31126  -0.11240   1.02880
  18 4   H  1S          0.12782  -0.11016   0.22532  -0.08312  -0.11342
  19        2S          0.05703  -0.16480   0.33707  -0.11240  -0.96263
                          11        12        13        14        15
                        (E)--V    (A1)--V   (E)--V    (E)--V    (A1)--V
     Eigenvalues --     0.18103   0.26458   0.60381   0.60381   0.63275
   1 1   P  1S          0.00000   0.04674  -0.00000  -0.00000  -0.00914
   2        2S         -0.00000  -0.27179   0.00000   0.00000   0.05967
   3        2PX         0.00775  -0.00000  -0.33073   0.09017   0.00000
   4        2PY        -0.13472  -0.00000  -0.09017  -0.33073  -0.00000
   5        2PZ         0.00000   0.10729  -0.00000  -0.00000   0.33796
   6        3S          0.00000   0.36133  -0.00000  -0.00000  -0.02006
   7        3PX        -0.01392   0.00000   1.22645  -0.33438  -0.00000
   8        3PY         0.24192   0.00000   0.33438   1.22645   0.00000
   9        3PZ        -0.00000  -0.24005   0.00000   0.00000  -1.27191
  10        4S          0.00000   1.75025   0.00000   0.00000  -0.42378
  11        4PX        -0.07316  -0.00000  -1.15888   0.31596  -0.00000
  12        4PY         1.27130  -0.00000  -0.31596  -1.15888  -0.00000
  13        4PZ        -0.00000  -1.16737  -0.00000  -0.00000   1.42449
  14 2   H  1S         -0.13547  -0.04231   0.04166   0.15280   0.09538
  15        2S         -1.14976  -1.19047  -0.00893  -0.03276   0.21137
  16 3   H  1S          0.06098  -0.04231  -0.15316  -0.04032   0.09538
  17        2S          0.51757  -1.19047   0.03284   0.00864   0.21137
  18 4   H  1S          0.07449  -0.04231   0.11150  -0.11248   0.09538
  19        2S          0.63218  -1.19047  -0.02390   0.02411   0.21137
                          16        17        18        19
                        (A1)--V   (A1)--V   (E)--V    (E)--V
     Eigenvalues --     0.70958   1.20672   1.26127   1.26127
   1 1   P  1S         -0.05325  -0.02861  -0.00000   0.00000
   2        2S          0.11683   0.09567   0.00000  -0.00000
   3        2PX         0.00000  -0.00000  -0.00140  -0.13998
   4        2PY         0.00000   0.00000  -0.13998   0.00140
   5        2PZ         0.02280  -0.12065  -0.00000   0.00000
   6        3S         -2.16293  -0.82233  -0.00000   0.00000
   7        3PX        -0.00000   0.00000   0.00408   0.40751
   8        3PY        -0.00000  -0.00000   0.40751  -0.00408
   9        3PZ         0.01135   0.37010   0.00000  -0.00000
  10        4S          3.95060   2.25773   0.00000  -0.00000
  11        4PX         0.00000  -0.00000  -0.00775  -0.77468
  12        4PY         0.00000   0.00000  -0.77468   0.00775
  13        4PZ        -1.19403  -0.96886  -0.00000   0.00000
  14 2   H  1S         -0.16970   0.73457  -1.08797   0.01088
  15        2S         -1.07478  -1.28735   1.41016  -0.01411
  16 3   H  1S         -0.16970   0.73457   0.55341   0.93677
  17        2S         -1.07478  -1.28735  -0.71729  -1.21418
  18 4   H  1S         -0.16970   0.73457   0.53456  -0.94765
  19        2S         -1.07478  -1.28735  -0.69286   1.22828
     Density Matrix:
                           1         2         3         4         5
   1 1   P  1S          2.13296
   2        2S         -0.54590   2.27730
   3        2PX         0.00000  -0.00000   1.96113
   4        2PY        -0.00000   0.00000   0.00000   1.96113
   5        2PZ        -0.00684   0.03586  -0.00000   0.00000   1.98915
   6        3S         -0.04706  -0.06756   0.00000  -0.00000  -0.05671
   7        3PX        -0.00000   0.00000   0.03667   0.00000  -0.00000
   8        3PY         0.00000  -0.00000   0.00000   0.03667  -0.00000
   9        3PZ         0.01428  -0.07251  -0.00000  -0.00000  -0.01635
  10        4S          0.15054  -0.60554   0.00000  -0.00000  -0.08085
  11        4PX        -0.00000   0.00000  -0.12357  -0.00000   0.00000
  12        4PY         0.00000  -0.00000  -0.00000  -0.12357  -0.00000
  13        4PZ         0.00499  -0.07415   0.00000  -0.00000  -0.26232
  14 2   H  1S          0.01534  -0.06739  -0.00000  -0.10402   0.05570
  15        2S         -0.01583   0.03884  -0.00000  -0.12144   0.03809
  16 3   H  1S          0.01534  -0.06739   0.09008   0.05201   0.05570
  17        2S         -0.01583   0.03884   0.10517   0.06072   0.03809
  18 4   H  1S          0.01534  -0.06739  -0.09008   0.05201   0.05570
  19        2S         -0.01583   0.03884  -0.10517   0.06072   0.03809
                           6         7         8         9        10
   6        3S          0.40421
   7        3PX        -0.00000   0.28075
   8        3PY         0.00000   0.00000   0.28075
   9        3PZ         0.08597  -0.00000   0.00000   0.37742
  10        4S          0.48677  -0.00000   0.00000   0.22264   0.74158
  11        4PX        -0.00000   0.12280   0.00000  -0.00000  -0.00000
  12        4PY         0.00000   0.00000   0.12280   0.00000   0.00000
  13        4PZ         0.14868  -0.00000   0.00000   0.39111   0.29689
  14 2   H  1S          0.06102   0.00000   0.18166  -0.09547   0.05452
  15        2S          0.00206   0.00000   0.27484  -0.10643  -0.03806
  16 3   H  1S          0.06102  -0.15732  -0.09083  -0.09547   0.05452
  17        2S          0.00206  -0.23802  -0.13742  -0.10643  -0.03806
  18 4   H  1S          0.06102   0.15732  -0.09083  -0.09547   0.05452
  19        2S          0.00206   0.23802  -0.13742  -0.10643  -0.03806
                          11        12        13        14        15
  11        4PX         0.06367
  12        4PY         0.00000   0.06367
  13        4PZ        -0.00000   0.00000   0.44299
  14 2   H  1S          0.00000   0.08857  -0.09405   0.17244
  15        2S          0.00000   0.13144  -0.11054   0.22114   0.31442
  16 3   H  1S         -0.07671  -0.04429  -0.09405  -0.01638  -0.06103
  17        2S         -0.11383  -0.06572  -0.11054  -0.06103  -0.10814
  18 4   H  1S          0.07671  -0.04429  -0.09405  -0.01638  -0.06103
  19        2S          0.11383  -0.06572  -0.11054  -0.06103  -0.10814
                          16        17        18        19
  16 3   H  1S          0.17244
  17        2S          0.22114   0.31442
  18 4   H  1S         -0.01638  -0.06103   0.17244
  19        2S         -0.06103  -0.10814   0.22114   0.31442
    Full Mulliken population analysis:
                           1         2         3         4         5
   1 1   P  1S          2.13296
   2        2S         -0.13713   2.27730
   3        2PX         0.00000   0.00000   1.96113
   4        2PY         0.00000   0.00000   0.00000   1.96113
   5        2PZ         0.00000   0.00000   0.00000   0.00000   1.98915
   6        3S         -0.00159  -0.02388   0.00000   0.00000   0.00000
   7        3PX         0.00000   0.00000   0.01109   0.00000   0.00000
   8        3PY         0.00000   0.00000   0.00000   0.01109  -0.00000
   9        3PZ         0.00000   0.00000   0.00000  -0.00000  -0.00495
  10        4S          0.00495  -0.15442   0.00000   0.00000   0.00000
  11        4PX         0.00000   0.00000  -0.00914  -0.00000  -0.00000
  12        4PY         0.00000   0.00000  -0.00000  -0.00914  -0.00000
  13        4PZ         0.00000   0.00000  -0.00000  -0.00000  -0.01940
  14 2   H  1S          0.00001  -0.00047  -0.00000  -0.00088  -0.00028
  15        2S         -0.00019   0.00374  -0.00000  -0.00400  -0.00075
  16 3   H  1S          0.00001  -0.00047  -0.00066  -0.00022  -0.00028
  17        2S         -0.00019   0.00374  -0.00300  -0.00100  -0.00075
  18 4   H  1S          0.00001  -0.00047  -0.00066  -0.00022  -0.00028
  19        2S         -0.00019   0.00374  -0.00300  -0.00100  -0.00075
                           6         7         8         9        10
   6        3S          0.40421
   7        3PX         0.00000   0.28075
   8        3PY         0.00000   0.00000   0.28075
   9        3PZ         0.00000   0.00000   0.00000   0.37742
  10        4S          0.40595   0.00000   0.00000   0.00000   0.74158
  11        4PX         0.00000   0.07940   0.00000   0.00000   0.00000
  12        4PY         0.00000   0.00000   0.07940   0.00000   0.00000
  13        4PZ         0.00000   0.00000   0.00000   0.25290   0.00000
  14 2   H  1S          0.00894   0.00000   0.04221   0.01324   0.01311
  15        2S          0.00082   0.00000   0.08867   0.02049  -0.02172
  16 3   H  1S          0.00894   0.03166   0.01055   0.01324   0.01311
  17        2S          0.00082   0.06650   0.02217   0.02049  -0.02172
  18 4   H  1S          0.00894   0.03166   0.01055   0.01324   0.01311
  19        2S          0.00082   0.06650   0.02217   0.02049  -0.02172
                          11        12        13        14        15
  11        4PX         0.06367
  12        4PY         0.00000   0.06367
  13        4PZ         0.00000   0.00000   0.44299
  14 2   H  1S          0.00000   0.03016   0.01912   0.17244
  15        2S          0.00000   0.07264   0.03646   0.14283   0.31442
  16 3   H  1S          0.02262   0.00754   0.01912  -0.00002  -0.00352
  17        2S          0.05448   0.01816   0.03646  -0.00352  -0.02501
  18 4   H  1S          0.02262   0.00754   0.01912  -0.00002  -0.00352
  19        2S          0.05448   0.01816   0.03646  -0.00352  -0.02501
                          16        17        18        19
  16 3   H  1S          0.17244
  17        2S          0.14283   0.31442
  18 4   H  1S         -0.00002  -0.00352   0.17244
  19        2S         -0.00352  -0.02501   0.14283   0.31442
     Gross orbital populations:
                           1
   1 1   P  1S          1.99864
   2        2S          1.97168
   3        2PX         1.95576
   4        2PY         1.95576
   5        2PZ         1.96171
   6        3S          0.81395
   7        3PX         0.56755
   8        3PY         0.56755
   9        3PZ         0.72658
  10        4S          0.97224
  11        4PX         0.28814
  12        4PY         0.28814
  13        4PZ         0.84322
  14 2   H  1S          0.43334
  15        2S          0.59636
  16 3   H  1S          0.43334
  17        2S          0.59636
  18 4   H  1S          0.43334
  19        2S          0.59636
          Condensed to atoms (all electrons):
               1          2          3          4
     1  P   13.946975   0.321316   0.321316   0.321316
     2  H    0.321316   0.772527  -0.032075  -0.032075
     3  H    0.321316  -0.032075   0.772527  -0.032075
     4  H    0.321316  -0.032075  -0.032075   0.772527
 Mulliken charges:
               1
     1  P    0.089077
     2  H   -0.029692
     3  H   -0.029692
     4  H   -0.029692
 Sum of Mulliken charges =   0.00000
 Mulliken charges with hydrogens summed into heavy atoms:
               1
     1  P    0.000000
 Electronic spatial extent (au):  <R**2>=             57.0006
 Charge=              0.0000 electrons
 Dipole moment (field-independent basis, Debye):
    X=              0.0000    Y=             -0.0000    Z=             -1.2424  Tot=              1.2424
 Quadrupole moment (field-independent basis, Debye-Ang):
   XX=            -15.3439   YY=            -15.3439   ZZ=            -18.0946
   XY=             -0.0000   XZ=             -0.0000   YZ=              0.0000
 Traceless Quadrupole moment (field-independent basis, Debye-Ang):
   XX=              0.9169   YY=              0.9169   ZZ=             -1.8338
   XY=             -0.0000   XZ=             -0.0000   YZ=              0.0000
 Octapole moment (field-independent basis, Debye-Ang**2):
  XXX=              0.0000  YYY=             -0.5135  ZZZ=             -1.8226  XYY=             -0.0000
  XXY=              0.5135  XXZ=              0.1518  XZZ=              0.0000  YZZ=             -0.0000
  YYZ=              0.1518  XYZ=              0.0000
 Hexadecapole moment (field-independent basis, Debye-Ang**3):
 XXXX=            -32.9919 YYYY=            -32.9919 ZZZZ=            -35.6765 XXXY=             -0.0000
 XXXZ=             -0.0000 YYYX=             -0.0000 YYYZ=              0.0047 ZZZX=             -0.0000
 ZZZY=              0.0000 XXYY=            -10.9973 XXZZ=            -11.3285 YYZZ=            -11.3285
 XXYZ=             -0.0047 YYXZ=              0.0000 ZZXY=              0.0000
 N-N= 1.748940505131D+01 E-N=-8.464829065328D+02  KE= 3.404777221638D+02
 Symmetry A'   KE= 3.093017454504D+02
 Symmetry A"   KE= 3.117597671337D+01
 Orbital energies and kinetic energies (alpha):
                                 1                 2
   1         (A1)--O         -79.386289        105.411404
   2         (A1)--O          -7.461032         16.233658
   3         (E)--O           -5.345247         14.564479
   4         (E)--O           -5.345247         14.564479
   5         (A1)--O          -5.342489         14.580749
   6         (A1)--O          -0.875790          1.490736
   7         (E)--O           -0.527343          1.023509
   8         (E)--O           -0.527343          1.023509
   9         (A1)--O          -0.380551          1.346338
  10         (E)--V            0.181032          0.819792
  11         (E)--V            0.181032          0.819792
  12         (A1)--V           0.264582          1.456063
  13         (E)--V            0.603808          2.483648
  14         (E)--V            0.603808          2.483648
  15         (A1)--V           0.632750          2.465086
  16         (A1)--V           0.709578          1.642917
  17         (A1)--V           1.206721          2.596617
  18         (E)--V            1.261271          2.468856
  19         (E)--V            1.261271          2.468856
 Total kinetic energy from orbitals= 3.404777221638D+02
 1\1\GINC-IISERK51\FOpt\RHF\3-21G\H3P1\GAUSSIAN\16-Jun-2025\0\\# opt fr
 eq hf/3-21g pop=full geom=connectivity\\PH3 opt\\0,1\P,0.0907904833,0.
 5956308474,0.\H,0.8198897266,-0.6259172924,-0.0043743426\H,0.819911702
 8,1.202603481,1.0600713034\H,0.8199117938,1.2101800647,-1.0556969608\\
 Version=EM64L-G16RevB.01\State=1-A1\HF=-340.7045193\RMSD=7.829e-09\RMS
 F=3.792e-05\Dipole=0.488802,-0.0000059,0.\Quadrupole=-1.3633519,0.6816
 759,0.6816759,0.0000246,0.,0.\PG=C03V [C3(P1),3SGV(H1)]\\@


 "WOULD YOU TELL ME PLEASE, WHICH WAY I OUGHT TO WALK FROM HERE?"
 "THAT DEPENDS A GREAT DEAL ON WHERE YOU WANT TO GO," SAID THE CAT.
 "I DON'T MUCH CARE WHERE -- ", SAID ALICE.
 "THEN IT DOESN'T MATTER WHICH WAY YOU WALK," SAID THE CAT.

                                      -- LEWIS CARROLL
 Job cpu time:       0 days  0 hours  0 minutes  1.6 seconds.
 Elapsed time:       0 days  0 hours  0 minutes  1.5 seconds.
 File lengths (MBytes):  RWF=      6 Int=      0 D2E=      0 Chk=      1 Scr=      1
 Normal termination of Gaussian 16 at Mon Jun 16 16:20:09 2025.
 Link1:  Proceeding to internal job step number  2.
 --------------------------------------------------------------
 #N Geom=AllCheck Guess=TCheck SCRF=Check GenChk RHF/3-21G Freq
 --------------------------------------------------------------
 1/10=4,29=7,30=1,38=1,40=1/1,3;
 2/12=2,40=1/2;
 3/5=5,11=1,14=-4,25=1,30=1,70=2,71=2,116=1,140=1/1,2,3;
 4/5=101/1;
 5/5=2,38=6,98=1/2;
 8/6=4,10=90,11=11/1;
 10/13=10,15=4/2;
 11/6=3,8=1,9=11,15=111,16=1/1,2,10;
 10/6=1/2;
 6/7=3,28=1/1;
 7/8=1,10=1,25=1/1,2,3,16;
 1/10=4,30=1/3;
 99//99;
 Structure from the checkpoint file:  "PH3_opt.chk"
 -------
 PH3 opt
 -------
 Charge =  0 Multiplicity = 1
 Redundant internal coordinates found in file.  (old form).
 P,0,0.0907904833,0.5956308474,0.
 H,0,0.8198897266,-0.6259172924,-0.0043743426
 H,0,0.8199117028,1.202603481,1.0600713034
 H,0,0.8199117938,1.2101800647,-1.0556969608
 Recover connectivity data from disk.

 GradGradGradGradGradGradGradGradGradGradGradGradGradGradGradGradGradGrad
 Berny optimization.
 Initialization pass.
                           ----------------------------
                           !    Initial Parameters    !
                           ! (Angstroms and Degrees)  !
 --------------------------                            --------------------------
 ! Name  Definition              Value          Derivative Info.                !
 --------------------------------------------------------------------------------
 ! R1    R(1,2)                  1.4226         calculate D2E/DX2 analytically  !
 ! R2    R(1,3)                  1.4226         calculate D2E/DX2 analytically  !
 ! R3    R(1,4)                  1.4226         calculate D2E/DX2 analytically  !
 ! A1    A(2,1,3)               96.0837         calculate D2E/DX2 analytically  !
 ! A2    A(2,1,4)               96.0837         calculate D2E/DX2 analytically  !
 ! A3    A(3,1,4)               96.0837         calculate D2E/DX2 analytically  !
 ! D1    D(2,1,4,3)            -96.8081         calculate D2E/DX2 analytically  !
 --------------------------------------------------------------------------------
 Trust Radius=3.00D-01 FncErr=1.00D-07 GrdErr=1.00D-07 EigMax=2.50D+02 EigMin=1.00D-04
 Number of steps in this run=      2 maximum allowed number of steps=      2.
 GradGradGradGradGradGradGradGradGradGradGradGradGradGradGradGradGradGrad

                          Input orientation:                          
 ---------------------------------------------------------------------
 Center     Atomic      Atomic             Coordinates (Angstroms)
 Number     Number       Type             X           Y           Z
 ---------------------------------------------------------------------
      1         15           0        0.090790    0.595631    0.000000
      2          1           0        0.819890   -0.625917   -0.004374
      3          1           0        0.819912    1.202603    1.060071
      4          1           0        0.819912    1.210180   -1.055697
 ---------------------------------------------------------------------
                    Distance matrix (angstroms):
                    1          2          3          4
     1  P    0.000000
     2  H    1.422598   0.000000
     3  H    1.422598   2.115782   0.000000
     4  H    1.422598   2.115782   2.115782   0.000000
 Stoichiometry    H3P
 Framework group  C3V[C3(P),3SGV(H)]
 Deg. of freedom     2
 Full point group                 C3V     NOp   6
 Largest Abelian subgroup         CS      NOp   2
 Largest concise Abelian subgroup CS      NOp   2
                         Standard orientation:                         
 ---------------------------------------------------------------------
 Center     Atomic      Atomic             Coordinates (Angstroms)
 Number     Number       Type             X           Y           Z
 ---------------------------------------------------------------------
[...]
 Symmetry A'   KE= 3.093017454345D+02
 Symmetry A"   KE= 3.117597672179D+01
 Orbital energies and kinetic energies (alpha):
                                 1                 2
   1         (A1)--O         -79.386289        105.411404
   2         (A1)--O          -7.461032         16.233658
   3         (E)--O           -5.345247         14.564479
   4         (E)--O           -5.345247         14.564479
   5         (A1)--O          -5.342489         14.580749
   6         (A1)--O          -0.875790          1.490736
   7         (E)--O           -0.527343          1.023509
   8         (E)--O           -0.527343          1.023509
   9         (A1)--O          -0.380551          1.346338
  10         (E)--V            0.181032          0.819792
  11         (E)--V            0.181032          0.819792
  12         (A1)--V           0.264582          1.456063
  13         (E)--V            0.603808          2.483648
  14         (E)--V            0.603808          2.483648
  15         (A1)--V           0.632750          2.465086
  16         (A1)--V           0.709578          1.642917
  17         (A1)--V           1.206721          2.596617
  18         (E)--V            1.261271          2.468856
  19         (E)--V            1.261271          2.468856
 Total kinetic energy from orbitals= 3.404777221563D+02
  Exact polarizability:  22.339   0.000  22.339   0.000   0.000  14.948
 Approx polarizability:  17.899   0.000  17.899   0.000   0.000  11.715
 Calling FoFJK, ICntrl=    100127 FMM=F ISym2X=1 I1Cent= 0 IOpClX= 0 NMat=1 NMatS=1 NMatT=0.
 Full mass-weighted force constant matrix:
 Low frequencies ---  -22.0019  -22.0019  -17.9243   -0.0044   -0.0044   -0.0034
 Low frequencies --- 1092.6444 1269.1192 1269.1192
 Diagonal vibrational polarizability:
        0.9769621       0.9769621       0.9436762
 Diagonal vibrational hyperpolarizability:
        0.0000000       5.4294728      39.7703067
 Harmonic frequencies (cm**-1), IR intensities (KM/Mole), Raman scattering
 activities (A**4/AMU), depolarization ratios for plane and unpolarized
 incident light, reduced masses (AMU), force constants (mDyne/A),
 and normal coordinates:
                      1                      2                      3
                     A1                      E                      E
 Frequencies --   1092.6444              1269.1192              1269.1192
 Red. masses --      1.0814                 1.0283                 1.0283
 Frc consts  --      0.7607                 0.9759                 0.9759
 IR Inten    --     34.6268                27.2660                27.2660
 Raman Activ --     63.9944                86.7402                86.7402
 Depolar (P) --      0.4961                 0.7500                 0.7500
 Depolar (U) --      0.6632                 0.8571                 0.8571
  Atom  AN      X      Y      Z        X      Y      Z        X      Y      Z
     1  15    -0.00   0.00  -0.05    -0.03   0.00   0.00    -0.00  -0.03  -0.00
     2   1     0.00   0.27   0.51     0.73   0.00   0.00     0.00  -0.19  -0.32
     3   1    -0.24  -0.14   0.51     0.04  -0.40   0.28    -0.40   0.50   0.16
     4   1     0.24  -0.14   0.51     0.04   0.40  -0.28     0.40   0.50   0.16
                      4                      5                      6
                      E                      E                     A1
 Frequencies --   2397.9586              2397.9586              2409.4744
 Red. masses --      1.0414                 1.0414                 1.0263
 Frc consts  --      3.5281                 3.5281                 3.5104
 IR Inten    --    111.4087               111.4087                35.1961
 Raman Activ --    154.9352               154.9352               246.6993
 Depolar (P) --      0.7500                 0.7500                 0.0110
 Depolar (U) --      0.8571                 0.8571                 0.0217
  Atom  AN      X      Y      Z        X      Y      Z        X      Y      Z
     1  15    -0.03  -0.00  -0.00     0.00  -0.03   0.00    -0.00   0.00   0.02
     2   1    -0.02   0.00  -0.00     0.00   0.71  -0.41    -0.00   0.52  -0.25
     3   1     0.52   0.31   0.35     0.31   0.16   0.20    -0.45  -0.26  -0.25
     4   1     0.52  -0.31  -0.35    -0.31   0.16   0.20     0.45  -0.26  -0.25

 -------------------
 - Thermochemistry -
 -------------------
 Temperature   298.150 Kelvin.  Pressure   1.00000 Atm.
 Atom     1 has atomic number 15 and mass  30.97376
 Atom     2 has atomic number  1 and mass   1.00783
 Atom     3 has atomic number  1 and mass   1.00783
 Atom     4 has atomic number  1 and mass   1.00783
 Molecular mass:    33.99724 amu.
 Principal axes and moments of inertia in atomic units:
                           1         2         3
     Eigenvalues --    13.28486  13.28486  16.11108
           X            0.99504   0.09950  -0.00000
           Y           -0.09950   0.99504   0.00000
           Z            0.00000   0.00000   1.00000
 This molecule is an oblate symmetric top.
 Rotational symmetry number  3.
 Rotational temperatures (Kelvin)      6.51975     6.51975     5.37605
 Rotational constants (GHZ):         135.84947   135.84947   112.01864
 Zero-point vibrational energy      64815.3 (Joules/Mol)
                                   15.49123 (Kcal/Mol)
 Vibrational temperatures:   1572.07  1825.98  1825.98  3450.13  3450.13
          (Kelvin)           3466.70
 
 Zero-point correction=                           0.024687 (Hartree/Particle)
 Thermal correction to Energy=                    0.027571
 Thermal correction to Enthalpy=                  0.028515
 Thermal correction to Gibbs Free Energy=         0.004687
 Sum of electronic and zero-point Energies=           -340.679832
 Sum of electronic and thermal Energies=              -340.676949
 Sum of electronic and thermal Enthalpies=            -340.676004
 Sum of electronic and thermal Free Energies=         -340.699833
 
                     E (Thermal)             CV                S
                      KCal/Mol        Cal/Mol-Kelvin    Cal/Mol-Kelvin
 Total                   17.301              6.583             50.151
 Electronic               0.000              0.000              0.000
 Translational            0.889              2.981             36.502
 Rotational               0.889              2.981             13.522
 Vibrational             15.523              0.621              0.127
                       Q            Log10(Q)             Ln(Q)
 Total Bot       0.698650D-02         -2.155741         -4.963776
 Total V=0       0.158275D+10          9.199412         21.182429
 Vib (Bot)       0.445653D-11        -11.351004        -26.136652
 Vib (V=0)       0.100960D+01          0.004149          0.009553
 Electronic      0.100000D+01          0.000000          0.000000
 Translational   0.779147D+07          6.891619         15.868540
 Rotational      0.201207D+03          2.303644          5.304336
 ***** Axes restored to original set *****
 -------------------------------------------------------------------
 Center     Atomic                   Forces (Hartrees/Bohr)
 Number     Number              X              Y              Z
 -------------------------------------------------------------------
      1       15          -0.000105538    0.000000001   -0.000000000
      2        1           0.000035179   -0.000028288   -0.000000101
      3        1           0.000035180    0.000014055    0.000024548
      4        1           0.000035180    0.000014231   -0.000024447
 -------------------------------------------------------------------
 Cartesian Forces:  Max     0.000105538 RMS     0.000037916
 FormGI is forming the generalized inverse of G from B-inverse, IUseBI=4.

 GradGradGradGradGradGradGradGradGradGradGradGradGradGradGradGradGradGrad
 Berny optimization.
 Internal  Forces:  Max     0.000042320 RMS     0.000033026
 Search for a local minimum.
 Step number   1 out of a maximum of    2
 All quantities printed in internal units (Hartrees-Bohrs-Radians)
 Second derivative matrix not updated -- analytic derivatives used.
 The second derivative matrix:
                          R1        R2        R3        A1        A2
           R1           0.21321
           R2           0.00136   0.21321
           R3           0.00136   0.00136   0.21321
           A1           0.00610   0.00610   0.00009   0.05176
           A2           0.01332   0.00258   0.01388  -0.02125   0.19608
           A3           0.00258   0.01332   0.01388  -0.02125  -0.00978
           D1          -0.00809  -0.00809  -0.00342  -0.04732  -0.00084
                          A3        D1
           A3           0.19608
           D1          -0.00084   0.04813
 ITU=  0
     Eigenvalues ---    0.09012   0.17972   0.19771   0.21305   0.22000
     Eigenvalues ---    0.23106
 Angle between quadratic step and forces=  21.23 degrees.
 Linear search not attempted -- first point.
 Iteration  1 RMS(Cart)=  0.00016385 RMS(Int)=  0.00000004
 Iteration  2 RMS(Cart)=  0.00000003 RMS(Int)=  0.00000002
 ClnCor:  largest displacement from symmetrization is 7.56D-09 for atom     4.
 Variable       Old X    -DE/DX   Delta X   Delta X   Delta X     New X
                                 (Linear)    (Quad)   (Total)
    R1        2.68832   0.00004   0.00000   0.00023   0.00023   2.68855
    R2        2.68832   0.00004   0.00000   0.00023   0.00023   2.68855
    R3        2.68832   0.00004   0.00000   0.00023   0.00023   2.68855
    A1        1.67698  -0.00001   0.00000  -0.00022  -0.00022   1.67676
    A2        1.67698  -0.00003   0.00000  -0.00022  -0.00022   1.67676
    A3        1.67698  -0.00003   0.00000  -0.00022  -0.00022   1.67676
    D1       -1.68962   0.00002   0.00000   0.00027   0.00027  -1.68935
         Item               Value     Threshold  Converged?
 Maximum Force            0.000042     0.000450     YES
 RMS     Force            0.000033     0.000300     YES
 Maximum Displacement     0.000373     0.001800     YES
 RMS     Displacement     0.000164     0.001200     YES
 Predicted change in Energy=-2.492573D-08
 Optimization completed.
    -- Stationary point found.
                           ----------------------------
                           !   Optimized Parameters   !
                           ! (Angstroms and Degrees)  !
 --------------------------                            --------------------------
 ! Name  Definition              Value          Derivative Info.                !
 --------------------------------------------------------------------------------
 ! R1    R(1,2)                  1.4226         -DE/DX =    0.0                 !
 ! R2    R(1,3)                  1.4226         -DE/DX =    0.0                 !
 ! R3    R(1,4)                  1.4226         -DE/DX =    0.0                 !
 ! A1    A(2,1,3)               96.0837         -DE/DX =    0.0                 !
 ! A2    A(2,1,4)               96.0837         -DE/DX =    0.0                 !
 ! A3    A(3,1,4)               96.0837         -DE/DX =    0.0                 !
 ! D1    D(2,1,4,3)            -96.8081         -DE/DX =    0.0                 !
 --------------------------------------------------------------------------------
 GradGradGradGradGradGradGradGradGradGradGradGradGradGradGradGradGradGrad


 ----------------------------------------------------------------------

 Electric dipole moment (input orientation):
 (Debye = 10**-18 statcoulomb cm , SI units = C m)
                  (au)            (Debye)         (10**-30 SI)
   Tot        0.488802D+00      0.124241D+01      0.414424D+01
   x          0.488802D+00      0.124241D+01      0.414424D+01
   y          0.000000D+00      0.000000D+00      0.000000D+00
   z          0.000000D+00      0.000000D+00      0.000000D+00

 Dipole polarizability, Alpha (input orientation).
 (esu units = cm**3 , SI units = C**2 m**2 J**-1)
 Alpha(0;0):
               (au)            (10**-24 esu)      (10**-40 SI)
   iso        0.198752D+02      0.294520D+01      0.327697D+01
   aniso      0.739064D+01      0.109518D+01      0.121855D+01
   xx         0.149481D+02      0.221508D+01      0.246461D+01
   yx         0.888249D-04      0.131625D-04      0.146453D-04
   yy         0.223387D+02      0.331026D+01      0.368316D+01
   zx         0.000000D+00      0.000000D+00      0.000000D+00
   zy         0.000000D+00      0.000000D+00      0.000000D+00
   zz         0.223387D+02      0.331026D+01      0.368316D+01

 First dipole hyperpolarizability, Beta (input orientation).
 ||, _|_  parallel and perpendicular components, (z) with respect to z axis,
 vector components x,y,z.  Values do not include the 1/n! factor of 1/2.
 (esu units = statvolt**-1 cm**4 , SI units = C**3 m**3 J**-2)
 Beta(0;0,0):
               (au)            (10**-30 esu)      (10**-50 SI)
   || (z)     0.000000D+00      0.000000D+00      0.000000D+00
   _|_(z)     0.000000D+00      0.000000D+00      0.000000D+00
   x         -0.417321D+01     -0.360533D-01     -0.133808D-01
   y          0.501561D-04      0.433309D-06      0.160818D-06
   z          0.000000D+00      0.000000D+00      0.000000D+00
   ||         0.834643D+00      0.721066D-02      0.267617D-02
   xxx       -0.175677D+02     -0.151772D+00     -0.563286D-01
   xxy        0.405557D-03      0.350370D-05      0.130036D-05
   yxy        0.808812D+01      0.698750D-01      0.259334D-01
   yyy       -0.183133D+02     -0.158212D+00     -0.587190D-01
   xxz        0.000000D+00      0.000000D+00      0.000000D+00
   yxz        0.000000D+00      0.000000D+00      0.000000D+00
   yyz       -0.196744D+00     -0.169971D-02     -0.630831D-03
   zxz        0.808856D+01      0.698788D-01      0.259348D-01
   zyz        0.183129D+02      0.158209D+00      0.587177D-01
   zzz        0.196744D+00      0.169971D-02      0.630831D-03

 ----------------------------------------------------------------------

 Dipole orientation:
    15          0.00001353          1.12558123          0.17155562
     1          0.00825209         -1.18279374          1.54938125
     1         -2.00321712          2.27263391          1.54938125
     1          1.99500561          2.28690353          1.54938125

 Electric dipole moment (dipole orientation):
 (Debye = 10**-18 statcoulomb cm , SI units = C m)
                  (au)            (Debye)         (10**-30 SI)
   Tot        0.488802D+00      0.124241D+01      0.414424D+01
   x          0.000000D+00      0.000000D+00      0.000000D+00
   y          0.000000D+00      0.000000D+00      0.000000D+00
   z          0.488802D+00      0.124241D+01      0.414424D+01

 Dipole polarizability, Alpha (dipole orientation).
 (esu units = cm**3 , SI units = C**2 m**2 J**-1)
 Alpha(0;0):
               (au)            (10**-24 esu)      (10**-40 SI)
   iso        0.198752D+02      0.294520D+01      0.327697D+01
   aniso      0.739064D+01      0.109518D+01      0.121855D+01
   xx         0.223387D+02      0.331026D+01      0.368316D+01
   yx         0.000000D+00      0.000000D+00      0.000000D+00
   yy         0.223387D+02      0.331026D+01      0.368316D+01
   zx         0.000000D+00      0.000000D+00      0.000000D+00
   zy         0.000000D+00      0.000000D+00      0.000000D+00
   zz         0.149481D+02      0.221508D+01      0.246461D+01

 First dipole hyperpolarizability, Beta (dipole orientation).
 ||, _|_  parallel and perpendicular components, (z) with respect to z axis,
 vector components x,y,z.  Values do not include the 1/n! factor of 1/2.
 (esu units = statvolt**-1 cm**4 , SI units = C**3 m**3 J**-2)
 Beta(0;0,0):
               (au)            (10**-30 esu)      (10**-50 SI)
   || (z)    -0.834643D+00     -0.721066D-02     -0.267617D-02
   _|_(z)    -0.278214D+00     -0.240355D-02     -0.892056D-03
   x          0.000000D+00      0.000000D+00      0.000000D+00
   y          0.000000D+00      0.000000D+00      0.000000D+00
   z         -0.417321D+01     -0.360533D-01     -0.133808D-01
   ||         0.834643D+00      0.721066D-02      0.267617D-02
   xxx       -0.196083D+00     -0.169401D-02     -0.628714D-03
   xxy        0.183130D+02      0.158210D+00      0.587181D-01
   yxy        0.196083D+00      0.169401D-02      0.628714D-03
   yyy       -0.183130D+02     -0.158210D+00     -0.587181D-01
   xxz        0.808834D+01      0.698769D-01      0.259341D-01
   yxz        0.000000D+00      0.000000D+00      0.000000D+00
   yyz        0.808834D+01      0.698769D-01      0.259341D-01
   zxz        0.000000D+00      0.000000D+00      0.000000D+00
   zyz        0.000000D+00      0.000000D+00      0.000000D+00
   zzz       -0.175677D+02     -0.151772D+00     -0.563286D-01

 ----------------------------------------------------------------------
 1\1\GINC-IISERK51\Freq\RHF\3-21G\H3P1\GAUSSIAN\16-Jun-2025\0\\#N Geom=
 AllCheck Guess=TCheck SCRF=Check GenChk RHF/3-21G Freq\\PH3 opt\\0,1\P
 ,0.0907904833,0.5956308474,0.\H,0.8198897266,-0.6259172924,-0.00437434
 26\H,0.8199117028,1.202603481,1.0600713034\H,0.8199117938,1.2101800647
 ,-1.0556969608\\Version=EM64L-G16RevB.01\State=1-A1\HF=-340.7045193\RM
 SD=1.052e-09\RMSF=3.792e-05\ZeroPoint=0.0246868\Thermal=0.0275707\Dipo
 le=0.4888021,-0.0000059,0.\DipoleDeriv=0.4223704,-0.000001,0.,-0.00000
 1,0.3373684,0.,0.,0.,0.3373684,-0.1407862,0.2754099,0.0009862,0.048000
 3,-0.1574278,-0.0003221,0.0001719,-0.0003221,-0.0674883,-0.1407921,-0.
 1368503,-0.2390057,-0.0238508,-0.0896914,-0.0387793,-0.041656,-0.03878
 17,-0.1352189,-0.1407921,-0.1385586,0.2380195,-0.0241485,-0.0902492,0.
 0391014,0.0414842,0.0391038,-0.1346611\Polar=14.9480861,0.0000888,22.3
 387275,0.,0.,22.3387275\PolarDeriv=-16.8945233,0.0000223,-5.4337758,0.
 ,0.0000002,-5.433818,-0.0000279,-9.6107859,1.7445872,0.0000002,0.01873
 96,-1.7442256,0.,0.0000002,0.0187396,-9.610828,-1.7441752,-0.0187396,5
 .631354,-5.9586994,2.5053928,-0.0213381,0.0049713,1.1171583,-0.8817685
 ,3.7207896,-10.2774182,0.0037044,-0.0225731,0.0039092,-0.0031576,0.003
 7044,-0.0083147,2.6863261,-3.9777823,-0.0284745,5.6315843,2.9608591,1.
 4598864,5.1710729,0.5986144,2.162635,0.4381635,2.9417901,4.2363464,0.4
 460661,3.9502701,0.8683672,0.7652423,0.4460775,0.4949131,3.465459,2.84
 68397,8.4204753,5.6315852,2.9978181,1.4684968,-5.1497348,-0.6035858,2.
 1540246,0.443633,2.9482066,4.2964846,-0.4497708,-3.9464366,0.8719492,-
 0.7620847,-0.4497821,-0.505338,3.459043,2.875118,-8.3732613\HyperPolar
 =-17.5677484,0.0004056,8.0881184,-18.3132784,0.,-0.0000024,-0.1967436,
 8.0885586,18.3128895,0.1967436\Quadrupole=-1.3633519,0.681676,0.681676
 ,0.0000246,0.,0.\PG=C03V [C3(P1),3SGV(H1)]\NImag=0\\0.22494806,0.00000
 047,0.26339361,0.,0.,0.26339358,-0.07498060,0.10483809,0.00037542,0.06
 670172,0.06826504,-0.14482370,-0.00040841,-0.08039160,0.16943097,0.000
 24446,-0.00040841,-0.03077411,-0.00028788,0.00049270,0.03184354,-0.074
 98372,-0.05209414,-0.09098148,0.00413944,0.00602527,0.01063470,0.06670
 461,-0.03392104,-0.05893126,-0.04917871,-0.01222344,-0.01223064,-0.018
 74157,0.03994709,0.06581226,-0.05924281,-0.04917910,-0.11666343,0.0000
 1169,-0.00172737,-0.00060771,0.06976689,0.05932908,0.13545936,-0.07498
 373,-0.05274441,0.09060606,0.00413944,0.00610128,-0.01059128,0.0041396
 6,0.00619740,-0.01053577,0.06670463,-0.03434447,-0.05963864,0.04958713
 ,-0.01222305,-0.01237664,0.01865728,0.00612178,0.00534964,-0.00842262,
 0.04044573,0.06666563,0.05899836,0.04958751,-0.11595604,-0.00009923,0.
 00164308,-0.00046171,0.01057989,0.00859120,-0.01818822,-0.06947901,-0.
 05982179,0.13460597\\0.00010554,0.,0.,-0.00003518,0.00002829,0.0000001
 0,-0.00003518,-0.00001406,-0.00002455,-0.00003518,-0.00001423,0.000024
 45\\\@


 FIREWORKS ENDED
 AND SPECTATORS GONE AWAY....
 AH, HOW VAST AND DARK
                     SHIKI
 Job cpu time:       0 days  0 hours  0 minutes  0.7 seconds.
 Elapsed time:       0 days  0 hours  0 minutes  0.7 seconds.
 File lengths (MBytes):  RWF=      6 Int=      0 D2E=      0 Chk=      1 Scr=      1
 Normal termination of Gaussian 16 at Mon Jun 16 16:20:10 2025.
