 Entering Gaussian System, Link 0=g16
 Input=/home/gaussian/Documents/Summer_Internship/Acid_Base_adduct/Base/PH3/PH4_ion_opt.com
 Output=/home/gaussian/Documents/Summer_Internship/Acid_Base_adduct/Base/PH3/PH4_ion_opt.log
 Initial command:
 /usr/local/g16/l1.exe "/home/gaussian/tmp/Gau-73469.inp" -scrdir="/home/gaussian/tmp/"
 Entering Link 1 = /usr/local/g16/l1.exe PID=     73472.
  
 Copyright (c) 1988-2017, Gaussian, Inc.  All Rights Reserved.
  
 This is part of the Gaussian(R) 16 program.  It is based on
 the Gaussian(R) 09 system (copyright 2009, Gaussian, Inc.),
 the Gaussian(R) 03 system (copyright 2003, Gaussian, Inc.),
 the Gaussian(R) 98 system (copyright 1998, Gaussian, Inc.),
 the Gaussian(R) 94 system (copyright 1995, Gaussian, Inc.),
 the Gaussian 92(TM) system (copyright 1992, Gaussian, Inc.),
 the Gaussian 90(TM) system (copyright 1990, Gaussian, Inc.),
 the Gaussian 88(TM) system (copyright 1988, Gaussian, Inc.),
 the Gaussian 86(TM) system (copyright 1986, Carnegie Mellon
 University), and the Gaussian 82(TM) system (copyright 1983,
 Carnegie Mellon University). Gaussian is a federally registered
 trademark of Gaussian, Inc.
  
 This software contains proprietary and confidential information,
 including trade secrets, belonging to Gaussian, Inc.
  
 This software is provided under written license and may be
 used, copied, transmitted, or stored only in accord with that
 written license.
  
 The following legend is applicable only to US Government
 contracts under FAR:
  
                    RESTRICTED RIGHTS LEGEND
  
 Use, reproduction and disclosure by the US Government is
 subject to restrictions as set forth in subparagraphs (a)
 and (c) of the Commercial Computer Software - Restricted
 Rights clause in FAR 52.227-19.
  
 Gaussian, Inc.
 340 Quinnipiac St., Bldg. 40, Wallingford CT 06492
  
  
 ---------------------------------------------------------------
 Warning -- This program may not be used in any manner that
 competes with the business of Gaussian, Inc. or will provide
 assistance to any competitor of Gaussian, Inc.  The licensee
 of this program is prohibited from giving any competitor of
 Gaussian, Inc. access to this program.  By using this program,
 the user acknowledges that Gaussian, Inc. is engaged in the
 business of creating and licensing software in the field of
 computational chemistry and represents and warrants to the
 licensee that it is not a competitor of Gaussian, Inc. and that
 it will not use this program in any manner prohibited above.
 ---------------------------------------------------------------
  

 Cite this work as:
 Gaussian 16, Revision B.01,
 M. J. Frisch, G. W. Trucks, H. B. Schlegel, G. E. Scuseria, 
 M. A. Robb, J. R. Cheeseman, G. Scalmani, V. Barone, 
 G. A. Petersson, H. Nakatsuji, X. Li, M. Caricato, A. V. Marenich, 
 J. Bloino, B. G. Janesko, R. Gomperts, B. Mennucci, H. P. Hratchian, 
 J. V. Ortiz, A. F. Izmaylov, J. L. Sonnenberg, D. Williams-Young, 
 F. Ding, F. Lipparini, F. Egidi, J. Goings, B. Peng, A. Petrone, 
 T. Henderson, D. Ranasinghe, V. G. Zakrzewski, J. Gao, N. Rega, 
 G. Zheng, W. Liang, M. Hada, M. Ehara, K. Toyota, R. Fukuda, 
 J. Hasegawa, M. Ishida, T. Nakajima, Y. Honda, O. Kitao, H. Nakai, 
 T. Vreven, K. Throssell, J. A. Montgomery, Jr., J. E. Peralta, 
 F. Ogliaro, M. J. Bearpark, J. J. Heyd, E. N. Brothers, K. N. Kudin, 
 V. N. Staroverov, T. A. Keith, R. Kobayashi, J. Normand, 
 K. Raghavachari, A. P. Rendell, J. C. Burant, S. S. Iyengar, 
 J. Tomasi, M. Cossi, J. M. Millam, M. Klene, C. Adamo, R. Cammi, 
 J. W. Ochterski, R. L. Martin, K. Morokuma, O. Farkas, 
 J. B. Foresman, and D. J. Fox, Gaussian, Inc., Wallingford CT, 2016.
 
 ******************************************
 Gaussian 16:  EM64L-G16RevB.01 20-Dec-2017
                16-Jun-2025 
 ******************************************
 %chk=PH4_ion_opt.chk
 ----------------------------------------------
 # opt freq hf/3-21g pop=full geom=connectivity
 ----------------------------------------------
 1/18=20,19=15,38=1,57=2/1,3;
 2/9=110,12=2,17=6,18=5,40=1/2;
 3/5=5,11=9,25=1,30=1,71=1/1,2,3;
 4//1;
 5/5=2,38=5/2;
 6/7=3,28=1/1;
 7//1,2,3,16;
 1/18=20,19=15/3(2);
 2/9=110/2;
 99//99;
 2/9=110/2;
 3/5=5,11=9,25=1,30=1,71=1/1,2,3;
 4/5=5,16=3,69=1/1;
 5/5=2,38=5/2;
 7//1,2,3,16;
 1/18=20,19=15/3(-5);
 2/9=110/2;
 6/7=3,19=2,28=1/1;
 99/9=1/99;
 --------
 PH4+ opt
 --------
 Symbolic Z-matrix:
 Charge =  1 Multiplicity = 1
 P                     0.        0.        0.12152 
 H                     0.        1.27279  -0.32849 
 H                    -1.10227  -0.6364   -0.32847 
 H                     1.10227  -0.6364   -0.32847 
 H                     0.        0.00001   1.47152 
 

 GradGradGradGradGradGradGradGradGradGradGradGradGradGradGradGradGradGrad
 Berny optimization.
 Initialization pass.
                           ----------------------------
                           !    Initial Parameters    !
                           ! (Angstroms and Degrees)  !
 --------------------------                            --------------------------
 ! Name  Definition              Value          Derivative Info.                !
 --------------------------------------------------------------------------------
 ! R1    R(1,2)                  1.35           estimate D2E/DX2                !
 ! R2    R(1,3)                  1.35           estimate D2E/DX2                !
 ! R3    R(1,4)                  1.35           estimate D2E/DX2                !
 ! R4    R(1,5)                  1.35           estimate D2E/DX2                !
 ! A1    A(2,1,3)              109.4712         estimate D2E/DX2                !
 ! A2    A(2,1,4)              109.4712         estimate D2E/DX2                !
 ! A3    A(2,1,5)              109.4712         estimate D2E/DX2                !
 ! A4    A(3,1,4)              109.4712         estimate D2E/DX2                !
 ! A5    A(3,1,5)              109.4712         estimate D2E/DX2                !
 ! A6    A(4,1,5)              109.4712         estimate D2E/DX2                !
 ! D1    D(2,1,4,3)           -120.0            estimate D2E/DX2                !
 ! D2    D(2,1,5,3)            120.0            estimate D2E/DX2                !
 ! D3    D(2,1,5,4)           -120.0            estimate D2E/DX2                !
 ! D4    D(3,1,5,4)            120.0            estimate D2E/DX2                !
 --------------------------------------------------------------------------------
 Trust Radius=3.00D-01 FncErr=1.00D-07 GrdErr=1.00D-07 EigMax=2.50D+02 EigMin=1.00D-04
 Number of steps in this run=     24 maximum allowed number of steps=    100.
 GradGradGradGradGradGradGradGradGradGradGradGradGradGradGradGradGradGrad

                          Input orientation:                          
 ---------------------------------------------------------------------
 Center     Atomic      Atomic             Coordinates (Angstroms)
 Number     Number       Type             X           Y           Z
 ---------------------------------------------------------------------
      1         15           0        0.000000    0.000000    0.121519
      2          1           0        0.000000    1.272788   -0.328494
      3          1           0       -1.102270   -0.636401   -0.328475
      4          1           0        1.102270   -0.636401   -0.328475
      5          1           0        0.000000    0.000014    1.471519
 ---------------------------------------------------------------------
                    Distance matrix (angstroms):
                    1          2          3          4          5
     1  P    0.000000
     2  H    1.350000   0.000000
     3  H    1.350000   2.204541   0.000000
     4  H    1.350000   2.204541   2.204541   0.000000
     5  H    1.350000   2.204541   2.204541   2.204541   0.000000
 Stoichiometry    H4P(1+)
 Framework group  TD[O(P),4C3(H)]
 Deg. of freedom     1
 Full point group                 TD      NOp  24
 Largest Abelian subgroup         D2      NOp   4
 Largest concise Abelian subgroup D2      NOp   4
                         Standard orientation:                         
 ---------------------------------------------------------------------
 Center     Atomic      Atomic             Coordinates (Angstroms)
 Number     Number       Type             X           Y           Z
 ---------------------------------------------------------------------
      1         15           0        0.000000    0.000000    0.000000
      2          1           0        0.779423   -0.779423    0.779423
      3          1           0        0.779423    0.779423   -0.779423
      4          1           0       -0.779423   -0.779423   -0.779423
      5          1           0       -0.779423    0.779423    0.779423
 ---------------------------------------------------------------------
 Rotational constants (GHZ):         103.1800635         103.1800635         103.1800635
 Standard basis: 3-21G (6D, 7F)
 There are     6 symmetry adapted cartesian basis functions of A   symmetry.
 There are     5 symmetry adapted cartesian basis functions of B1  symmetry.
 There are     5 symmetry adapted cartesian basis functions of B2  symmetry.
 There are     5 symmetry adapted cartesian basis functions of B3  symmetry.
 There are     6 symmetry adapted basis functions of A   symmetry.
 There are     5 symmetry adapted basis functions of B1  symmetry.
 There are     5 symmetry adapted basis functions of B2  symmetry.
 There are     5 symmetry adapted basis functions of B3  symmetry.
    21 basis functions,    39 primitive gaussians,    21 cartesian basis functions
     9 alpha electrons        9 beta electrons
       nuclear repulsion energy        24.9592251956 Hartrees.



 Warning!  P  atom    1 may be hypervalent but has no d functions.



 NAtoms=    5 NActive=    5 NUniq=    2 SFac= 4.00D+00 NAtFMM=   60 NAOKFM=F Big=F
 Integral buffers will be    131072 words long.
 Raffenetti 1 integral format.
 Two-electron integral symmetry is turned on.
 One-electron integrals computed using PRISM.
 NBasis=    21 RedAO= T EigKep=  2.17D-02  NBF=     6     5     5     5
 NBsUse=    21 1.00D-06 EigRej= -1.00D+00 NBFU=     6     5     5     5
 ExpMin= 1.23D-01 ExpMax= 1.05D+03 ExpMxC= 1.05D+03 IAcc=3 IRadAn=         5 AccDes= 0.00D+00
 Harris functional with IExCor=  205 and IRadAn=       5 diagonalized for initial guess.
 HarFok:  IExCor=  205 AccDes= 0.00D+00 IRadAn=         5 IDoV= 1 UseB2=F ITyADJ=14
 ICtDFT=  3500011 ScaDFX=  1.000000  1.000000  1.000000  1.000000
 FoFCou: FMM=F IPFlag=           0 FMFlag=      100000 FMFlg1=           0
         NFxFlg=           0 DoJE=T BraDBF=F KetDBF=T FulRan=T
         wScrn=  0.000000 ICntrl=       500 IOpCl=  0 I1Cent=   200000004 NGrid=           0
         NMat0=    1 NMatS0=      1 NMatT0=    0 NMatD0=    1 NMtDS0=    0 NMtDT0=    0
 Petite list used in FoFCou.
 Initial guess orbital symmetries:
       Occupied  (A1) (A1) (T2) (T2) (T2) (A1) (T2) (T2) (T2)
       Virtual   (T2) (T2) (T2) (A1) (T2) (T2) (T2) (A1) (A1) (T2)
                 (T2) (T2)
 The electronic state of the initial guess is 1-A1.
 Keep R1 ints in memory in symmetry-blocked form, NReq=833977.
 Requested convergence on RMS density matrix=1.00D-08 within 128 cycles.
 Requested convergence on MAX density matrix=1.00D-06.
 Requested convergence on             energy=1.00D-06.
 No special actions if energy rises.
 SCF Done:  E(RHF) =  -340.994802300     A.U. after    8 cycles
            NFock=  8  Conv=0.13D-08     -V/T= 1.9995

 **********************************************************************

            Population analysis using the SCF Density.

 **********************************************************************

 Orbital symmetries:
       Occupied  (A1) (A1) (T2) (T2) (T2) (A1) (T2) (T2) (T2)
       Virtual   (T2) (T2) (T2) (A1) (T2) (T2) (T2) (A1) (A1) (T2)
                 (T2) (T2)
 The electronic state is 1-A1.
 Alpha  occ. eigenvalues --  -79.69307  -7.77960  -5.66489  -5.66489  -5.66489
 Alpha  occ. eigenvalues --   -1.21280  -0.85066  -0.85066  -0.85066
 Alpha virt. eigenvalues --   -0.05845  -0.05845  -0.05845   0.01373   0.30828
 Alpha virt. eigenvalues --    0.30828   0.30828   0.40394   0.93454   1.03299
 Alpha virt. eigenvalues --    1.03299   1.03299
     Molecular Orbital Coefficients:
                           1         2         3         4         5
                        (A1)--O   (A1)--O   (T2)--O   (T2)--O   (T2)--O
     Eigenvalues --   -79.69307  -7.77960  -5.66489  -5.66489  -5.66489
   1 1   P  1S          0.98701  -0.29561   0.00000   0.00000   0.00000
   2        2S          0.04880   0.99672   0.00000   0.00000   0.00000
   3        2PX         0.00000   0.00000   0.97263   0.00000   0.00000
   4        2PY         0.00000   0.00000   0.00000   0.97263   0.00000
   5        2PZ         0.00000   0.00000   0.00000   0.00000   0.97263
   6        3S         -0.01553   0.13054   0.00000   0.00000   0.00000
   7        3PX         0.00000   0.00000   0.08869   0.00000   0.00000
   8        3PY         0.00000   0.00000   0.00000   0.08869   0.00000
   9        3PZ         0.00000   0.00000   0.00000   0.00000   0.08869
  10        4S          0.01135  -0.09057   0.00000   0.00000   0.00000
  11        4PX         0.00000   0.00000  -0.03110   0.00000   0.00000
  12        4PY         0.00000   0.00000   0.00000  -0.03110   0.00000
  13        4PZ         0.00000   0.00000   0.00000   0.00000  -0.03110
  14 2   H  1S          0.00110  -0.00549  -0.00443   0.00443  -0.00443
  15        2S         -0.00216   0.01812   0.00617  -0.00617   0.00617
  16 3   H  1S          0.00110  -0.00549  -0.00443  -0.00443   0.00443
  17        2S         -0.00216   0.01812   0.00617   0.00617  -0.00617
  18 4   H  1S          0.00110  -0.00549   0.00443   0.00443   0.00443
  19        2S         -0.00216   0.01812  -0.00617  -0.00617  -0.00617
  20 5   H  1S          0.00110  -0.00549   0.00443  -0.00443  -0.00443
  21        2S         -0.00216   0.01812  -0.00617   0.00617   0.00617
                           6         7         8         9        10
                        (A1)--O   (T2)--O   (T2)--O   (T2)--O   (T2)--V
     Eigenvalues --    -1.21280  -0.85066  -0.85066  -0.85066  -0.05845
   1 1   P  1S          0.06691   0.00000   0.00000   0.00000   0.00000
   2        2S         -0.35628   0.00000   0.00000   0.00000   0.00000
   3        2PX         0.00000  -0.21207   0.00000   0.00000  -0.11811
   4        2PY         0.00000   0.00000   0.00000  -0.21207   0.00000
   5        2PZ         0.00000   0.00000  -0.21207   0.00000   0.00000
   6        3S          0.44318   0.00000   0.00000   0.00000   0.00000
   7        3PX         0.00000   0.43825   0.00000   0.00000   0.22391
   8        3PY         0.00000   0.00000   0.00000   0.43825   0.00000
   9        3PZ         0.00000   0.00000   0.43825   0.00000   0.00000
  10        4S          0.42662   0.00000   0.00000   0.00000   0.00000
  11        4PX         0.00000   0.17157   0.00000   0.00000   1.50236
  12        4PY         0.00000   0.00000   0.00000   0.17157   0.00000
  13        4PZ         0.00000   0.00000   0.17157   0.00000   0.00000
  14 2   H  1S          0.12053   0.15973   0.15973  -0.15973  -0.09418
  15        2S          0.03193   0.17292   0.17292  -0.17292  -0.83332
  16 3   H  1S          0.12053   0.15973  -0.15973   0.15973  -0.09418
  17        2S          0.03193   0.17292  -0.17292   0.17292  -0.83332
  18 4   H  1S          0.12053  -0.15973  -0.15973  -0.15973   0.09418
  19        2S          0.03193  -0.17292  -0.17292  -0.17292   0.83332
  20 5   H  1S          0.12053  -0.15973   0.15973   0.15973   0.09418
  21        2S          0.03193  -0.17292   0.17292   0.17292   0.83332
                          11        12        13        14        15
                        (T2)--V   (T2)--V   (A1)--V   (T2)--V   (T2)--V
     Eigenvalues --    -0.05845  -0.05845   0.01373   0.30828   0.30828
   1 1   P  1S          0.00000   0.00000   0.05598   0.00000   0.00000
   2        2S          0.00000   0.00000  -0.31366   0.00000   0.00000
   3        2PX         0.00000   0.00000   0.00000   0.00000   0.00000
   4        2PY        -0.11811   0.00000   0.00000   0.00000  -0.32634
   5        2PZ         0.00000  -0.11811   0.00000  -0.32634   0.00000
   6        3S          0.00000   0.00000   0.54519   0.00000   0.00000
   7        3PX         0.00000   0.00000   0.00000   0.00000   0.00000
   8        3PY         0.22391   0.00000   0.00000   0.00000   1.23046
   9        3PZ         0.00000   0.22391   0.00000   1.23046   0.00000
  10        4S          0.00000   0.00000   1.88554   0.00000   0.00000
  11        4PX         0.00000   0.00000   0.00000   0.00000   0.00000
  12        4PY         1.50236   0.00000   0.00000   0.00000  -1.20051
  13        4PZ         0.00000   1.50236   0.00000  -1.20051   0.00000
  14 2   H  1S          0.09418  -0.09418  -0.07423   0.08849  -0.08849
  15        2S          0.83332  -0.83332  -0.93421  -0.04114   0.04114
  16 3   H  1S         -0.09418   0.09418  -0.07423  -0.08849   0.08849
  17        2S         -0.83332   0.83332  -0.93421   0.04114  -0.04114
  18 4   H  1S          0.09418   0.09418  -0.07423  -0.08849  -0.08849
  19        2S          0.83332   0.83332  -0.93421   0.04114   0.04114
  20 5   H  1S         -0.09418  -0.09418  -0.07423   0.08849   0.08849
  21        2S         -0.83332  -0.83332  -0.93421  -0.04114  -0.04114
                          16        17        18        19        20
                        (T2)--V   (A1)--V   (A1)--V   (T2)--V   (T2)--V
     Eigenvalues --     0.30828   0.40394   0.93454   1.03299   1.03299
   1 1   P  1S          0.00000  -0.04161  -0.03949   0.00000   0.00000
   2        2S          0.00000   0.05921   0.13625   0.00000   0.00000
   3        2PX        -0.32634   0.00000   0.00000   0.16490   0.00000
   4        2PY         0.00000   0.00000   0.00000   0.00000   0.00000
   5        2PZ         0.00000   0.00000   0.00000   0.00000   0.16490
   6        3S          0.00000  -1.97020  -1.14691   0.00000   0.00000
   7        3PX         1.23046   0.00000   0.00000  -0.49630   0.00000
   8        3PY         0.00000   0.00000   0.00000   0.00000   0.00000
   9        3PZ         0.00000   0.00000   0.00000   0.00000  -0.49630
  10        4S          0.00000   4.06438   3.26429   0.00000   0.00000
  11        4PX        -1.20051   0.00000   0.00000   0.94606   0.00000
  12        4PY         0.00000   0.00000   0.00000   0.00000   0.00000
  13        4PZ         0.00000   0.00000   0.00000   0.00000   0.94606
  14 2   H  1S          0.08849  -0.21096   0.62155   0.67232   0.67232
  15        2S         -0.04114  -0.81248  -1.28008  -0.92256  -0.92256
  16 3   H  1S          0.08849  -0.21096   0.62155   0.67232  -0.67232
  17        2S         -0.04114  -0.81248  -1.28008  -0.92256   0.92256
  18 4   H  1S         -0.08849  -0.21096   0.62155  -0.67232  -0.67232
  19        2S          0.04114  -0.81248  -1.28008   0.92256   0.92256
  20 5   H  1S         -0.08849  -0.21096   0.62155  -0.67232   0.67232
  21        2S          0.04114  -0.81248  -1.28008   0.92256  -0.92256
                          21
                        (T2)--V
     Eigenvalues --     1.03299
   1 1   P  1S          0.00000
   2        2S          0.00000
   3        2PX         0.00000
   4        2PY         0.16490
   5        2PZ         0.00000
   6        3S          0.00000
   7        3PX         0.00000
   8        3PY        -0.49630
   9        3PZ         0.00000
  10        4S          0.00000
  11        4PX         0.00000
  12        4PY         0.94606
  13        4PZ         0.00000
  14 2   H  1S         -0.67232
  15        2S          0.92256
  16 3   H  1S          0.67232
  17        2S         -0.92256
  18 4   H  1S         -0.67232
  19        2S          0.92256
  20 5   H  1S          0.67232
  21        2S         -0.92256
     Density Matrix:
                           1         2         3         4         5
   1 1   P  1S          2.13211
   2        2S         -0.54063   2.24551
   3        2PX         0.00000   0.00000   1.98197
   4        2PY         0.00000   0.00000  -0.00000   1.98197
   5        2PZ         0.00000   0.00000  -0.00000   0.00000   1.98197
   6        3S         -0.04853  -0.05709   0.00000   0.00000   0.00000
   7        3PX         0.00000   0.00000  -0.01336   0.00000   0.00000
   8        3PY         0.00000   0.00000   0.00000  -0.01336  -0.00000
   9        3PZ         0.00000   0.00000   0.00000  -0.00000  -0.01336
  10        4S          0.13304  -0.48343   0.00000   0.00000   0.00000
  11        4PX         0.00000   0.00000  -0.13327   0.00000   0.00000
  12        4PY         0.00000   0.00000   0.00000  -0.13327  -0.00000
  13        4PZ         0.00000   0.00000   0.00000  -0.00000  -0.13327
  14 2   H  1S          0.02155  -0.09672  -0.07636   0.07636  -0.07636
  15        2S         -0.01071   0.01315  -0.06135   0.06135  -0.06135
  16 3   H  1S          0.02155  -0.09672  -0.07636  -0.07636   0.07636
  17        2S         -0.01071   0.01315  -0.06135  -0.06135   0.06135
  18 4   H  1S          0.02155  -0.09672   0.07636   0.07636   0.07636
  19        2S         -0.01071   0.01315   0.06135   0.06135   0.06135
  20 5   H  1S          0.02155  -0.09672   0.07636  -0.07636  -0.07636
  21        2S         -0.01071   0.01315   0.06135  -0.06135  -0.06135
                           6         7         8         9        10
   6        3S          0.42737
   7        3PX         0.00000   0.39986
   8        3PY         0.00000  -0.00000   0.39986
   9        3PZ         0.00000  -0.00000   0.00000   0.39986
  10        4S          0.35414   0.00000   0.00000   0.00000   0.38067
  11        4PX         0.00000   0.14486  -0.00000  -0.00000   0.00000
  12        4PY         0.00000  -0.00000   0.14486   0.00000   0.00000
  13        4PZ         0.00000  -0.00000   0.00000   0.14486   0.00000
  14 2   H  1S          0.10536   0.13922  -0.13922   0.13922   0.10386
  15        2S          0.03310   0.15266  -0.15266   0.15266   0.02391
  16 3   H  1S          0.10536   0.13922   0.13922  -0.13922   0.10386
  17        2S          0.03310   0.15266   0.15266  -0.15266   0.02391
  18 4   H  1S          0.10536  -0.13922  -0.13922  -0.13922   0.10386
  19        2S          0.03310  -0.15266  -0.15266  -0.15266   0.02391
  20 5   H  1S          0.10536  -0.13922   0.13922   0.13922   0.10386
  21        2S          0.03310  -0.15266   0.15266   0.15266   0.02391
                          11        12        13        14        15
  11        4PX         0.06081
  12        4PY        -0.00000   0.06081
  13        4PZ        -0.00000   0.00000   0.06081
  14 2   H  1S          0.05508  -0.05508   0.05508   0.18231
  15        2S          0.05895  -0.05895   0.05895   0.17305   0.18234
  16 3   H  1S          0.05508   0.05508  -0.05508  -0.02195  -0.04769
  17        2S          0.05895   0.05895  -0.05895  -0.04769  -0.05717
  18 4   H  1S         -0.05508  -0.05508  -0.05508  -0.02195  -0.04769
  19        2S         -0.05895  -0.05895  -0.05895  -0.04769  -0.05717
  20 5   H  1S         -0.05508   0.05508   0.05508  -0.02195  -0.04769
  21        2S         -0.05895   0.05895   0.05895  -0.04769  -0.05717
                          16        17        18        19        20
  16 3   H  1S          0.18231
  17        2S          0.17305   0.18234
  18 4   H  1S         -0.02195  -0.04769   0.18231
  19        2S         -0.04769  -0.05717   0.17305   0.18234
  20 5   H  1S         -0.02195  -0.04769  -0.02195  -0.04769   0.18231
  21        2S         -0.04769  -0.05717  -0.04769  -0.05717   0.17305
                          21
  21        2S          0.18234
    Full Mulliken population analysis:
                           1         2         3         4         5
   1 1   P  1S          2.13211
   2        2S         -0.13580   2.24551
   3        2PX         0.00000   0.00000   1.98197
   4        2PY         0.00000   0.00000   0.00000   1.98197
   5        2PZ         0.00000   0.00000   0.00000   0.00000   1.98197
   6        3S         -0.00164  -0.02017   0.00000   0.00000   0.00000
   7        3PX         0.00000   0.00000  -0.00404  -0.00000  -0.00000
   8        3PY         0.00000   0.00000  -0.00000  -0.00404  -0.00000
   9        3PZ         0.00000   0.00000  -0.00000  -0.00000  -0.00404
  10        4S          0.00437  -0.12328   0.00000   0.00000   0.00000
  11        4PX         0.00000   0.00000  -0.00986  -0.00000  -0.00000
  12        4PY         0.00000   0.00000  -0.00000  -0.00986  -0.00000
  13        4PZ         0.00000   0.00000  -0.00000  -0.00000  -0.00986
  14 2   H  1S          0.00001  -0.00108  -0.00065  -0.00065  -0.00065
  15        2S         -0.00014   0.00143  -0.00146  -0.00146  -0.00146
  16 3   H  1S          0.00001  -0.00108  -0.00065  -0.00065  -0.00065
  17        2S         -0.00014   0.00143  -0.00146  -0.00146  -0.00146
  18 4   H  1S          0.00001  -0.00108  -0.00065  -0.00065  -0.00065
  19        2S         -0.00014   0.00143  -0.00146  -0.00146  -0.00146
  20 5   H  1S          0.00001  -0.00108  -0.00065  -0.00065  -0.00065
  21        2S         -0.00014   0.00143  -0.00146  -0.00146  -0.00146
                           6         7         8         9        10
   6        3S          0.42737
   7        3PX         0.00000   0.39986
   8        3PY         0.00000   0.00000   0.39986
   9        3PZ         0.00000   0.00000   0.00000   0.39986
  10        4S          0.29534   0.00000   0.00000   0.00000   0.38067
  11        4PX         0.00000   0.09367   0.00000   0.00000   0.00000
  12        4PY         0.00000   0.00000   0.09367   0.00000   0.00000
  13        4PZ         0.00000   0.00000   0.00000   0.09367   0.00000
  14 2   H  1S          0.01853   0.02518   0.02518   0.02518   0.02699
  15        2S          0.01429   0.03441   0.03441   0.03441   0.01438
  16 3   H  1S          0.01853   0.02518   0.02518   0.02518   0.02699
  17        2S          0.01429   0.03441   0.03441   0.03441   0.01438
  18 4   H  1S          0.01853   0.02518   0.02518   0.02518   0.02699
  19        2S          0.01429   0.03441   0.03441   0.03441   0.01438
  20 5   H  1S          0.01853   0.02518   0.02518   0.02518   0.02699
  21        2S          0.01429   0.03441   0.03441   0.03441   0.01438
                          11        12        13        14        15
  11        4PX         0.06081
  12        4PY         0.00000   0.06081
  13        4PZ         0.00000   0.00000   0.06081
  14 2   H  1S          0.01293   0.01293   0.01293   0.18231
  15        2S          0.02192   0.02192   0.02192   0.11177   0.18234
  16 3   H  1S          0.01293   0.01293   0.01293  -0.00001  -0.00224
  17        2S          0.02192   0.02192   0.02192  -0.00224  -0.01166
  18 4   H  1S          0.01293   0.01293   0.01293  -0.00001  -0.00224
  19        2S          0.02192   0.02192   0.02192  -0.00224  -0.01166
  20 5   H  1S          0.01293   0.01293   0.01293  -0.00001  -0.00224
  21        2S          0.02192   0.02192   0.02192  -0.00224  -0.01166
                          16        17        18        19        20
  16 3   H  1S          0.18231
  17        2S          0.11177   0.18234
  18 4   H  1S         -0.00001  -0.00224   0.18231
  19        2S         -0.00224  -0.01166   0.11177   0.18234
  20 5   H  1S         -0.00001  -0.00224  -0.00001  -0.00224   0.18231
  21        2S         -0.00224  -0.01166  -0.00224  -0.01166   0.11177
                          21
  21        2S          0.18234
     Gross orbital populations:
                           1
   1 1   P  1S          1.99851
   2        2S          1.96769
   3        2PX         1.95961
   4        2PY         1.95961
   5        2PZ         1.95961
   6        3S          0.83221
   7        3PX         0.72788
   8        3PY         0.72788
   9        3PZ         0.72788
  10        4S          0.72259
  11        4PX         0.28400
  12        4PY         0.28400
  13        4PZ         0.28400
  14 2   H  1S          0.44416
  15        2S          0.44697
  16 3   H  1S          0.44416
  17        2S          0.44697
  18 4   H  1S          0.44416
  19        2S          0.44697
  20 5   H  1S          0.44416
  21        2S          0.44697
          Condensed to atoms (all electrons):
               1          2          3          4          5
     1  P   13.029856   0.351407   0.351407   0.351407   0.351407
     2  H    0.351407   0.588196  -0.016158  -0.016158  -0.016158
     3  H    0.351407  -0.016158   0.588196  -0.016158  -0.016158
     4  H    0.351407  -0.016158  -0.016158   0.588196  -0.016158
     5  H    0.351407  -0.016158  -0.016158  -0.016158   0.588196
 Mulliken charges:
               1
     1  P    0.564516
     2  H    0.108871
     3  H    0.108871
     4  H    0.108871
     5  H    0.108871
 Sum of Mulliken charges =   1.00000
 Mulliken charges with hydrogens summed into heavy atoms:
               1
     1  P    1.000000
 Electronic spatial extent (au):  <R**2>=             52.4554
 Charge=              1.0000 electrons
 Dipole moment (field-independent basis, Debye):
    X=             -0.0000    Y=              0.0000    Z=              0.0000  Tot=              0.0000
 Quadrupole moment (field-independent basis, Debye-Ang):
   XX=            -11.8463   YY=            -11.8463   ZZ=            -11.8463
   XY=              0.0000   XZ=             -0.0000   YZ=              0.0000
 Traceless Quadrupole moment (field-independent basis, Debye-Ang):
   XX=              0.0000   YY=             -0.0000   ZZ=              0.0000
   XY=              0.0000   XZ=             -0.0000   YZ=              0.0000
 Octapole moment (field-independent basis, Debye-Ang**2):
  XXX=             -0.0000  YYY=              0.0000  ZZZ=              0.0000  XYY=             -0.0000
  XXY=              0.0000  XXZ=              0.0000  XZZ=             -0.0000  YZZ=              0.0000
  YYZ=             -0.0000  XYZ=             -0.9705
 Hexadecapole moment (field-independent basis, Debye-Ang**3):
 XXXX=            -25.1871 YYYY=            -25.1871 ZZZZ=            -25.1871 XXXY=              0.0000
 XXXZ=              0.0000 YYYX=              0.0000 YYYZ=             -0.0000 ZZZX=              0.0000
 ZZZY=             -0.0000 XXYY=             -7.5786 XXZZ=             -7.5786 YYZZ=             -7.5786
 XXYZ=              0.0000 YYXZ=             -0.0000 ZZXY=              0.0000
 N-N= 2.495922519557D+01 E-N=-8.565921564975D+02  KE= 3.411483406368D+02
 Symmetry A    KE= 2.464975342600D+02
 Symmetry B1   KE= 3.155026879228D+01
 Symmetry B2   KE= 3.155026879228D+01
 Symmetry B3   KE= 3.155026879228D+01
 Orbital energies and kinetic energies (alpha):
                                 1                 2
   1         (A1)--O         -79.693068        105.406145
   2         (A1)--O          -7.779605         16.218995
   3         (T2)--O          -5.664885         14.558650
   4         (T2)--O          -5.664885         14.558650
   5         (T2)--O          -5.664885         14.558650
   6         (A1)--O          -1.212798          1.623627
   7         (T2)--O          -0.850664          1.216484
   8         (T2)--O          -0.850664          1.216484
   9         (T2)--O          -0.850664          1.216484
  10         (T2)--V          -0.058452          0.778043
  11         (T2)--V          -0.058452          0.778043
  12         (T2)--V          -0.058452          0.778043
  13         (A1)--V           0.013730          1.625000
  14         (T2)--V           0.308285          2.289440
  15         (T2)--V           0.308285          2.289440
  16         (T2)--V           0.308285          2.289440
  17         (A1)--V           0.403939          1.348982
  18         (A1)--V           0.934539          2.509685
  19         (T2)--V           1.032988          2.620435
  20         (T2)--V           1.032988          2.620435
  21         (T2)--V           1.032988          2.620435
 Total kinetic energy from orbitals= 3.411483406368D+02
 Calling FoFJK, ICntrl=      2127 FMM=F ISym2X=1 I1Cent= 0 IOpClX= 0 NMat=1 NMatS=1 NMatT=0.
 ***** Axes restored to original set *****
 -------------------------------------------------------------------
 Center     Atomic                   Forces (Hartrees/Bohr)
 Number     Number              X              Y              Z
 -------------------------------------------------------------------
      1       15          -0.000000000    0.000000000   -0.000000000
      2        1          -0.000000000    0.020814173   -0.007359155
      3        1          -0.018025666   -0.010407197   -0.007358844
      4        1           0.018025666   -0.010407196   -0.007358843
      5        1          -0.000000000    0.000000221    0.022076842
 -------------------------------------------------------------------
 Cartesian Forces:  Max     0.022076842 RMS     0.011400432

 GradGradGradGradGradGradGradGradGradGradGradGradGradGradGradGradGradGrad
 Berny optimization.
 FormGI is forming the generalized inverse of G from B-inverse, IUseBI=4.
 Internal  Forces:  Max     0.022076842 RMS     0.011800568
 Search for a local minimum.
 Step number   1 out of a maximum of   24
 All quantities printed in internal units (Hartrees-Bohrs-Radians)
 Mixed Optimization -- RFO/linear search
 Second derivative matrix not updated -- first step.
 The second derivative matrix:
                          R1        R2        R3        R4        A1
           R1           0.25638
           R2           0.00000   0.25638
           R3           0.00000   0.00000   0.25638
           R4           0.00000   0.00000   0.00000   0.25638
           A1           0.00000   0.00000   0.00000   0.00000   0.16000
           A2           0.00000   0.00000   0.00000   0.00000   0.00000
           A3           0.00000   0.00000   0.00000   0.00000   0.00000
           A4           0.00000   0.00000   0.00000   0.00000   0.00000
           A5           0.00000   0.00000   0.00000   0.00000   0.00000
           A6           0.00000   0.00000   0.00000   0.00000   0.00000
           D1           0.00000   0.00000   0.00000   0.00000   0.00000
           D2           0.00000   0.00000   0.00000   0.00000   0.00000
           D3           0.00000   0.00000   0.00000   0.00000   0.00000
           D4           0.00000   0.00000   0.00000   0.00000   0.00000
                          A2        A3        A4        A5        A6
           A2           0.16000
           A3           0.00000   0.16000
           A4           0.00000   0.00000   0.16000
           A5           0.00000   0.00000   0.00000   0.16000
           A6           0.00000   0.00000   0.00000   0.00000   0.16000
           D1           0.00000   0.00000   0.00000   0.00000   0.00000
           D2           0.00000   0.00000   0.00000   0.00000   0.00000
           D3           0.00000   0.00000   0.00000   0.00000   0.00000
           D4           0.00000   0.00000   0.00000   0.00000   0.00000
                          D1        D2        D3        D4
           D1           0.01162
           D2           0.00000   0.01162
           D3           0.00000   0.00000   0.01162
           D4           0.00000   0.00000   0.00000   0.01162
 ITU=  0
     Eigenvalues ---    0.05728   0.06323   0.09076   0.16000   0.16000
     Eigenvalues ---    0.25638   0.25638   0.25638   0.25638
 RFO step:  Lambda=-7.39104558D-03 EMin= 5.72771730D-02
 Linear search not attempted -- first point.
 Iteration  1 RMS(Cart)=  0.04473786 RMS(Int)=  0.00000000
 Iteration  2 RMS(Cart)=  0.00000000 RMS(Int)=  0.00000000
 ClnCor:  largest displacement from symmetrization is 2.53D-14 for atom     5.
 Variable       Old X    -DE/DX   Delta X   Delta X   Delta X     New X
                                 (Linear)    (Quad)   (Total)
    R1        2.55113   0.02208   0.00000   0.08370   0.08370   2.63483
    R2        2.55113   0.02208   0.00000   0.08370   0.08370   2.63483
    R3        2.55113   0.02208   0.00000   0.08370   0.08370   2.63483
    R4        2.55113   0.02208   0.00000   0.08370   0.08370   2.63483
    A1        1.91063   0.00000   0.00000   0.00000  -0.00000   1.91063
    A2        1.91063   0.00000   0.00000   0.00000   0.00000   1.91063
    A3        1.91063   0.00000   0.00000   0.00000   0.00000   1.91063
    A4        1.91063   0.00000   0.00000   0.00000   0.00000   1.91063
    A5        1.91063  -0.00000   0.00000  -0.00000   0.00000   1.91063
    A6        1.91063  -0.00000   0.00000  -0.00000  -0.00000   1.91063
    D1       -2.09440  -0.00000   0.00000  -0.00000   0.00000  -2.09440
    D2        2.09440   0.00000   0.00000   0.00000  -0.00000   2.09440
    D3       -2.09440  -0.00000   0.00000  -0.00000  -0.00000  -2.09440
    D4        2.09440  -0.00000   0.00000  -0.00000   0.00000   2.09440
         Item               Value     Threshold  Converged?
 Maximum Force            0.022077     0.000450     NO 
 RMS     Force            0.011801     0.000300     NO 
 Maximum Displacement     0.083697     0.001800     NO 
 RMS     Displacement     0.044738     0.001200     NO 
 Predicted change in Energy=-3.799076D-03
 GradGradGradGradGradGradGradGradGradGradGradGradGradGradGradGradGradGrad

                          Input orientation:                          
 ---------------------------------------------------------------------
 Center     Atomic      Atomic             Coordinates (Angstroms)
 Number     Number       Type             X           Y           Z
 ---------------------------------------------------------------------
      1         15           0       -0.000000    0.000000    0.121519
      2          1           0       -0.000000    1.314545   -0.343258
      3          1           0       -1.138433   -0.657279   -0.343238
      4          1           0        1.138433   -0.657279   -0.343238
      5          1           0       -0.000000    0.000014    1.515809
 ---------------------------------------------------------------------
                    Distance matrix (angstroms):
                    1          2          3          4          5
     1  P    0.000000
     2  H    1.394290   0.000000
     3  H    1.394290   2.276867   0.000000
     4  H    1.394290   2.276867   2.276867   0.000000
     5  H    1.394290   2.276867   2.276867   2.276867   0.000000
 Stoichiometry    H4P(1+)
 Framework group  TD[O(P),4C3(H)]
 Deg. of freedom     1
 Full point group                 TD      NOp  24
 Largest Abelian subgroup         D2      NOp   4
 Largest concise Abelian subgroup D2      NOp   4
                         Standard orientation:                         
 ---------------------------------------------------------------------
 Center     Atomic      Atomic             Coordinates (Angstroms)
 Number     Number       Type             X           Y           Z
 ---------------------------------------------------------------------
      1         15           0        0.000000    0.000000    0.000000
      2          1           0        0.804994    0.804994    0.804994
      3          1           0       -0.804994    0.804994   -0.804994
      4          1           0        0.804994   -0.804994   -0.804994
      5          1           0       -0.804994   -0.804994    0.804994
 ---------------------------------------------------------------------
 Rotational constants (GHZ):          96.7290239          96.7290239          96.7290239
 Standard basis: 3-21G (6D, 7F)
 There are     6 symmetry adapted cartesian basis functions of A   symmetry.
 There are     5 symmetry adapted cartesian basis functions of B1  symmetry.
 There are     5 symmetry adapted cartesian basis functions of B2  symmetry.
 There are     5 symmetry adapted cartesian basis functions of B3  symmetry.
 There are     6 symmetry adapted basis functions of A   symmetry.
 There are     5 symmetry adapted basis functions of B1  symmetry.
 There are     5 symmetry adapted basis functions of B2  symmetry.
 There are     5 symmetry adapted basis functions of B3  symmetry.
    21 basis functions,    39 primitive gaussians,    21 cartesian basis functions
     9 alpha electrons        9 beta electrons
       nuclear repulsion energy        24.1663803676 Hartrees.



 Warning!  P  atom    1 may be hypervalent but has no d functions.



 NAtoms=    5 NActive=    5 NUniq=    2 SFac= 4.00D+00 NAtFMM=   60 NAOKFM=F Big=F
 Integral buffers will be    131072 words long.
 Raffenetti 1 integral format.
 Two-electron integral symmetry is turned on.
 One-electron integrals computed using PRISM.
 NBasis=    21 RedAO= T EigKep=  2.49D-02  NBF=     6     5     5     5
 NBsUse=    21 1.00D-06 EigRej= -1.00D+00 NBFU=     6     5     5     5
 Initial guess from the checkpoint file:  "PH4_ion_opt.chk"
 B after Tr=    -0.000000   -0.000000   -0.000000
         Rot=    0.707107    0.000000   -0.000000   -0.707107 Ang= -90.00 deg.
 Initial guess orbital symmetries:
       Occupied  (A1) (A1) (T2) (T2) (T2) (A1) (T2) (T2) (T2)
       Virtual   (T2) (T2) (T2) (A1) (T2) (T2) (T2) (A1) (A1) (T2)
                 (T2) (T2)
 ExpMin= 1.23D-01 ExpMax= 1.05D+03 ExpMxC= 1.05D+03 IAcc=3 IRadAn=         5 AccDes= 0.00D+00
 Harris functional with IExCor=  205 and IRadAn=       5 diagonalized for initial guess.
 HarFok:  IExCor=  205 AccDes= 0.00D+00 IRadAn=         5 IDoV= 1 UseB2=F ITyADJ=14
 ICtDFT=  3500011 ScaDFX=  1.000000  1.000000  1.000000  1.000000
 FoFCou: FMM=F IPFlag=           0 FMFlag=      100000 FMFlg1=           0
         NFxFlg=           0 DoJE=T BraDBF=F KetDBF=T FulRan=T
         wScrn=  0.000000 ICntrl=       500 IOpCl=  0 I1Cent=   200000004 NGrid=           0
         NMat0=    1 NMatS0=      1 NMatT0=    0 NMatD0=    1 NMtDS0=    0 NMtDT0=    0
 Petite list used in FoFCou.
 Keep R1 ints in memory in symmetry-blocked form, NReq=833921.
 Requested convergence on RMS density matrix=1.00D-08 within 128 cycles.
 Requested convergence on MAX density matrix=1.00D-06.
 Requested convergence on             energy=1.00D-06.
 No special actions if energy rises.
 SCF Done:  E(RHF) =  -340.998160800     A.U. after    8 cycles
            NFock=  8  Conv=0.45D-09     -V/T= 2.0002
 Calling FoFJK, ICntrl=      2127 FMM=F ISym2X=1 I1Cent= 0 IOpClX= 0 NMat=1 NMatS=1 NMatT=0.
 ***** Axes restored to original set *****
 -------------------------------------------------------------------
 Center     Atomic                   Forces (Hartrees/Bohr)
 Number     Number              X              Y              Z
 -------------------------------------------------------------------
      1       15           0.000000000    0.000000000    0.000000000
      2        1           0.000000000   -0.001063581    0.000376045
      3        1           0.000921091    0.000531796    0.000376029
      4        1          -0.000921091    0.000531796    0.000376029
      5        1           0.000000000   -0.000000011   -0.001128102
 -------------------------------------------------------------------
 Cartesian Forces:  Max     0.001128102 RMS     0.000582549

 GradGradGradGradGradGradGradGradGradGradGradGradGradGradGradGradGradGrad
 Berny optimization.
 Using GEDIIS/GDIIS optimizer.
 FormGI is forming the generalized inverse of G from B-inverse, IUseBI=4.
 Internal  Forces:  Max     0.001128102 RMS     0.000602996
 Search for a local minimum.
 Step number   2 out of a maximum of   24
 All quantities printed in internal units (Hartrees-Bohrs-Radians)
 Mixed Optimization -- En-DIIS/RFO-DIIS
 Update second derivatives using D2CorX and points    1    2
 DE= -3.36D-03 DEPred=-3.80D-03 R= 8.84D-01
 TightC=F SS=  1.41D+00  RLast= 1.67D-01 DXNew= 5.0454D-01 5.0218D-01
 Trust test= 8.84D-01 RLast= 1.67D-01 DXMaxT set to 5.02D-01
 The second derivative matrix:
                          R1        R2        R3        R4        A1
           R1           0.26160
           R2           0.00522   0.26160
           R3           0.00522   0.00522   0.26160
           R4           0.00522   0.00522   0.00522   0.26160
           A1           0.00000   0.00000   0.00000   0.00000   0.16000
           A2           0.00000   0.00000   0.00000   0.00000   0.00000
           A3          -0.00000  -0.00000  -0.00000  -0.00000  -0.00000
           A4           0.00000   0.00000   0.00000   0.00000   0.00000
           A5           0.00000   0.00000   0.00000   0.00000   0.00000
           A6          -0.00000  -0.00000  -0.00000  -0.00000  -0.00000
           D1          -0.00000  -0.00000  -0.00000  -0.00000  -0.00000
           D2           0.00000   0.00000   0.00000   0.00000   0.00000
           D3           0.00000   0.00000   0.00000   0.00000   0.00000
           D4          -0.00000  -0.00000  -0.00000  -0.00000  -0.00000
                          A2        A3        A4        A5        A6
           A2           0.16000
           A3          -0.00000   0.16000
           A4           0.00000  -0.00000   0.16000
           A5           0.00000  -0.00000   0.00000   0.16000
           A6          -0.00000   0.00000  -0.00000  -0.00000   0.16000
           D1          -0.00000   0.00000  -0.00000  -0.00000   0.00000
           D2           0.00000  -0.00000   0.00000   0.00000  -0.00000
           D3           0.00000  -0.00000   0.00000   0.00000  -0.00000
           D4          -0.00000   0.00000  -0.00000  -0.00000   0.00000
                          D1        D2        D3        D4
           D1           0.01162
           D2          -0.00000   0.01162
           D3          -0.00000   0.00000   0.01162
           D4           0.00000  -0.00000  -0.00000   0.01162
 ITU=  1  0
 Use linear search instead of GDIIS.
     Eigenvalues ---    0.05728   0.06323   0.09076   0.16000   0.16000
     Eigenvalues ---    0.25638   0.25638   0.25638   0.27725
 RFO step:  Lambda= 0.00000000D+00 EMin= 5.72771730D-02
 Quartic linear search produced a step of -0.05440.
 Iteration  1 RMS(Cart)=  0.00243383 RMS(Int)=  0.00000000
 Iteration  2 RMS(Cart)=  0.00000000 RMS(Int)=  0.00000000
 ClnCor:  largest displacement from symmetrization is 1.76D-14 for atom     5.
 Variable       Old X    -DE/DX   Delta X   Delta X   Delta X     New X
                                 (Linear)    (Quad)   (Total)
    R1        2.63483  -0.00113  -0.00455   0.00000  -0.00455   2.63027
    R2        2.63483  -0.00113  -0.00455   0.00000  -0.00455   2.63027
    R3        2.63483  -0.00113  -0.00455   0.00000  -0.00455   2.63027
    R4        2.63483  -0.00113  -0.00455  -0.00000  -0.00455   2.63027
    A1        1.91063  -0.00000   0.00000  -0.00000   0.00000   1.91063
    A2        1.91063  -0.00000  -0.00000  -0.00000   0.00000   1.91063
    A3        1.91063   0.00000   0.00000   0.00000   0.00000   1.91063
    A4        1.91063   0.00000  -0.00000   0.00000   0.00000   1.91063
    A5        1.91063  -0.00000  -0.00000  -0.00000   0.00000   1.91063
    A6        1.91063   0.00000   0.00000   0.00000   0.00000   1.91063
    D1       -2.09440   0.00000   0.00000   0.00000   0.00000  -2.09440
    D2        2.09440  -0.00000   0.00000  -0.00000   0.00000   2.09440
    D3       -2.09440  -0.00000   0.00000  -0.00000   0.00000  -2.09440
    D4        2.09440   0.00000   0.00000   0.00000   0.00000   2.09440
         Item               Value     Threshold  Converged?
 Maximum Force            0.001128     0.000450     NO 
 RMS     Force            0.000603     0.000300     NO 
 Maximum Displacement     0.004553     0.001800     NO 
 RMS     Displacement     0.002434     0.001200     NO 
 Predicted change in Energy=-9.050166D-06
 GradGradGradGradGradGradGradGradGradGradGradGradGradGradGradGradGradGrad

                          Input orientation:                          
 ---------------------------------------------------------------------
 Center     Atomic      Atomic             Coordinates (Angstroms)
 Number     Number       Type             X           Y           Z
 ---------------------------------------------------------------------
      1         15           0       -0.000000    0.000000    0.121519
      2          1           0       -0.000000    1.312273   -0.342454
      3          1           0       -1.136466   -0.656144   -0.342435
      4          1           0        1.136466   -0.656144   -0.342435
      5          1           0       -0.000000    0.000014    1.513400
 ---------------------------------------------------------------------
                    Distance matrix (angstroms):
                    1          2          3          4          5
     1  P    0.000000
     2  H    1.391881   0.000000
     3  H    1.391881   2.272932   0.000000
     4  H    1.391881   2.272932   2.272932   0.000000
     5  H    1.391881   2.272932   2.272932   2.272932   0.000000
 Stoichiometry    H4P(1+)
 Framework group  TD[O(P),4C3(H)]
 Deg. of freedom     1
 Full point group                 TD      NOp  24
 Largest Abelian subgroup         D2      NOp   4
 Largest concise Abelian subgroup D2      NOp   4
                         Standard orientation:                         
 ---------------------------------------------------------------------
 Center     Atomic      Atomic             Coordinates (Angstroms)
 Number     Number       Type             X           Y           Z
 ---------------------------------------------------------------------
      1         15           0        0.000000    0.000000    0.000000
      2          1           0        0.803603    0.803603    0.803603
      3          1           0       -0.803603    0.803603   -0.803603
      4          1           0        0.803603   -0.803603   -0.803603
      5          1           0       -0.803603   -0.803603    0.803603
 ---------------------------------------------------------------------
 Rotational constants (GHZ):          97.0642102          97.0642102          97.0642102
 Standard basis: 3-21G (6D, 7F)
 There are     6 symmetry adapted cartesian basis functions of A   symmetry.
 There are     5 symmetry adapted cartesian basis functions of B1  symmetry.
 There are     5 symmetry adapted cartesian basis functions of B2  symmetry.
 There are     5 symmetry adapted cartesian basis functions of B3  symmetry.
 There are     6 symmetry adapted basis functions of A   symmetry.
 There are     5 symmetry adapted basis functions of B1  symmetry.
 There are     5 symmetry adapted basis functions of B2  symmetry.
 There are     5 symmetry adapted basis functions of B3  symmetry.
    21 basis functions,    39 primitive gaussians,    21 cartesian basis functions
     9 alpha electrons        9 beta electrons
       nuclear repulsion energy        24.2082149357 Hartrees.



 Warning!  P  atom    1 may be hypervalent but has no d functions.



 NAtoms=    5 NActive=    5 NUniq=    2 SFac= 4.00D+00 NAtFMM=   60 NAOKFM=F Big=F
 Integral buffers will be    131072 words long.
 Raffenetti 1 integral format.
 Two-electron integral symmetry is turned on.
 One-electron integrals computed using PRISM.
 NBasis=    21 RedAO= T EigKep=  2.47D-02  NBF=     6     5     5     5
 NBsUse=    21 1.00D-06 EigRej= -1.00D+00 NBFU=     6     5     5     5
 Initial guess from the checkpoint file:  "PH4_ion_opt.chk"
 B after Tr=     0.000000    0.000000    0.000000
         Rot=    1.000000    0.000000   -0.000000   -0.000000 Ang=   0.00 deg.
 Initial guess orbital symmetries:
       Occupied  (A1) (A1) (T2) (T2) (T2) (A1) (T2) (T2) (T2)
       Virtual   (T2) (T2) (T2) (A1) (T2) (T2) (T2) (A1) (A1) (T2)
                 (T2) (T2)
 Keep R1 ints in memory in symmetry-blocked form, NReq=833921.
 Requested convergence on RMS density matrix=1.00D-08 within 128 cycles.
 Requested convergence on MAX density matrix=1.00D-06.
 Requested convergence on             energy=1.00D-06.
 No special actions if energy rises.
 SCF Done:  E(RHF) =  -340.998171082     A.U. after    7 cycles
            NFock=  7  Conv=0.84D-09     -V/T= 2.0002
 Calling FoFJK, ICntrl=      2127 FMM=F ISym2X=1 I1Cent= 0 IOpClX= 0 NMat=1 NMatS=1 NMatT=0.
 ***** Axes restored to original set *****
 -------------------------------------------------------------------
 Center     Atomic                   Forces (Hartrees/Bohr)
 Number     Number              X              Y              Z
 -------------------------------------------------------------------
      1       15           0.000000000    0.000000000   -0.000000000
      2        1          -0.000000000    0.000001387   -0.000000490
      3        1          -0.000001201   -0.000000693   -0.000000490
      4        1           0.000001201   -0.000000693   -0.000000490
      5        1          -0.000000000    0.000000000    0.000001471
 -------------------------------------------------------------------
 Cartesian Forces:  Max     0.000001471 RMS     0.000000760

 GradGradGradGradGradGradGradGradGradGradGradGradGradGradGradGradGradGrad
 Berny optimization.
 Using GEDIIS/GDIIS optimizer.
 FormGI is forming the generalized inverse of G from B-inverse, IUseBI=4.
 Internal  Forces:  Max     0.000001471 RMS     0.000000786
 Search for a local minimum.
 Step number   3 out of a maximum of   24
 All quantities printed in internal units (Hartrees-Bohrs-Radians)
 Mixed Optimization -- En-DIIS/RFO-DIIS
 Swapping is turned off.
 Update second derivatives using D2CorX and points    1    2    3
 DE= -1.03D-05 DEPred=-9.05D-06 R= 1.14D+00
 TightC=F SS=  1.41D+00  RLast= 9.11D-03 DXNew= 8.4456D-01 2.7320D-02
 Trust test= 1.14D+00 RLast= 9.11D-03 DXMaxT set to 5.02D-01
 The second derivative matrix:
                          R1        R2        R3        R4        A1
           R1           0.25430
           R2          -0.00208   0.25430
           R3          -0.00208  -0.00208   0.25430
           R4          -0.00208  -0.00208  -0.00208   0.25430
           A1          -0.00000  -0.00000  -0.00000  -0.00000   0.16000
           A2           0.00000   0.00000   0.00000   0.00000  -0.00000
           A3           0.00000   0.00000   0.00000   0.00000  -0.00000
           A4           0.00000   0.00000   0.00000   0.00000  -0.00000
           A5          -0.00000  -0.00000  -0.00000  -0.00000   0.00000
           A6          -0.00000  -0.00000  -0.00000  -0.00000   0.00000
           D1          -0.00000  -0.00000  -0.00000  -0.00000   0.00000
           D2          -0.00000  -0.00000  -0.00000  -0.00000   0.00000
           D3          -0.00000  -0.00000  -0.00000  -0.00000   0.00000
           D4           0.00000   0.00000   0.00000   0.00000  -0.00000
                          A2        A3        A4        A5        A6
           A2           0.16000
           A3           0.00000   0.16000
           A4           0.00000   0.00000   0.16000
           A5          -0.00000  -0.00000  -0.00000   0.16000
           A6          -0.00000  -0.00000  -0.00000   0.00000   0.16000
           D1          -0.00000  -0.00000  -0.00000   0.00000   0.00000
           D2          -0.00000  -0.00000  -0.00000   0.00000   0.00000
           D3          -0.00000  -0.00000  -0.00000   0.00000   0.00000
           D4           0.00000   0.00000   0.00000  -0.00000  -0.00000
                          D1        D2        D3        D4
           D1           0.01162
           D2           0.00000   0.01162
           D3           0.00000   0.00000   0.01162
           D4          -0.00000  -0.00000  -0.00000   0.01162
 ITU=  1  1  0
     Eigenvalues ---    0.05728   0.06323   0.09076   0.16000   0.16000
     Eigenvalues ---    0.24808   0.25638   0.25638   0.25638
 En-DIIS/RFO-DIIS/Sim-DIIS IScMMF=       -3 using points:     3    2
 RFO step:  Lambda= 0.00000000D+00.
 DidBck=F Rises=F RFO-DIIS coefs:    0.99870    0.00130
 Iteration  1 RMS(Cart)=  0.00000317 RMS(Int)=  0.00000000
 Iteration  2 RMS(Cart)=  0.00000000 RMS(Int)=  0.00000000
 ClnCor:  largest displacement from symmetrization is 2.70D-14 for atom     3.
 Variable       Old X    -DE/DX   Delta X   Delta X   Delta X     New X
                                 (Linear)    (Quad)   (Total)
    R1        2.63027   0.00000   0.00001  -0.00000   0.00001   2.63028
    R2        2.63027   0.00000   0.00001   0.00000   0.00001   2.63028
    R3        2.63027   0.00000   0.00001  -0.00000   0.00001   2.63028
    R4        2.63027   0.00000   0.00001   0.00000   0.00001   2.63028
    A1        1.91063  -0.00000   0.00000  -0.00000   0.00000   1.91063
    A2        1.91063   0.00000   0.00000   0.00000   0.00000   1.91063
    A3        1.91063   0.00000   0.00000   0.00000   0.00000   1.91063
    A4        1.91063   0.00000   0.00000   0.00000   0.00000   1.91063
    A5        1.91063  -0.00000   0.00000  -0.00000   0.00000   1.91063
    A6        1.91063  -0.00000   0.00000  -0.00000   0.00000   1.91063
    D1       -2.09440  -0.00000   0.00000  -0.00000   0.00000  -2.09440
    D2        2.09440  -0.00000   0.00000  -0.00000   0.00000   2.09440
    D3       -2.09440  -0.00000   0.00000  -0.00000   0.00000  -2.09440
    D4        2.09440   0.00000   0.00000   0.00000   0.00000   2.09440
         Item               Value     Threshold  Converged?
 Maximum Force            0.000001     0.000450     YES
 RMS     Force            0.000001     0.000300     YES
 Maximum Displacement     0.000006     0.001800     YES
 RMS     Displacement     0.000003     0.001200     YES
 Predicted change in Energy=-1.744656D-11
 Optimization completed.
    -- Stationary point found.
                           ----------------------------
                           !   Optimized Parameters   !
                           ! (Angstroms and Degrees)  !
 --------------------------                            --------------------------
 ! Name  Definition              Value          Derivative Info.                !
 --------------------------------------------------------------------------------
 ! R1    R(1,2)                  1.3919         -DE/DX =    0.0                 !
 ! R2    R(1,3)                  1.3919         -DE/DX =    0.0                 !
 ! R3    R(1,4)                  1.3919         -DE/DX =    0.0                 !
 ! R4    R(1,5)                  1.3919         -DE/DX =    0.0                 !
 ! A1    A(2,1,3)              109.4712         -DE/DX =    0.0                 !
 ! A2    A(2,1,4)              109.4712         -DE/DX =    0.0                 !
 ! A3    A(2,1,5)              109.4712         -DE/DX =    0.0                 !
 ! A4    A(3,1,4)              109.4712         -DE/DX =    0.0                 !
 ! A5    A(3,1,5)              109.4712         -DE/DX =    0.0                 !
 ! A6    A(4,1,5)              109.4712         -DE/DX =    0.0                 !
 ! D1    D(2,1,4,3)           -120.0            -DE/DX =    0.0                 !
 ! D2    D(2,1,5,3)            120.0            -DE/DX =    0.0                 !
 ! D3    D(2,1,5,4)           -120.0            -DE/DX =    0.0                 !
 ! D4    D(3,1,5,4)            120.0            -DE/DX =    0.0                 !
 --------------------------------------------------------------------------------
 GradGradGradGradGradGradGradGradGradGradGradGradGradGradGradGradGradGrad

                          Input orientation:                          
 ---------------------------------------------------------------------
 Center     Atomic      Atomic             Coordinates (Angstroms)
 Number     Number       Type             X           Y           Z
 ---------------------------------------------------------------------
      1         15           0       -0.000000    0.000000    0.121519
      2          1           0       -0.000000    1.312273   -0.342454
      3          1           0       -1.136466   -0.656144   -0.342435
      4          1           0        1.136466   -0.656144   -0.342435
      5          1           0       -0.000000    0.000014    1.513400
 ---------------------------------------------------------------------
                    Distance matrix (angstroms):
                    1          2          3          4          5
     1  P    0.000000
     2  H    1.391881   0.000000
     3  H    1.391881   2.272932   0.000000
     4  H    1.391881   2.272932   2.272932   0.000000
     5  H    1.391881   2.272932   2.272932   2.272932   0.000000
 Stoichiometry    H4P(1+)
 Framework group  TD[O(P),4C3(H)]
 Deg. of freedom     1
 Full point group                 TD      NOp  24
 Largest Abelian subgroup         D2      NOp   4
 Largest concise Abelian subgroup D2      NOp   4
                         Standard orientation:                         
 ---------------------------------------------------------------------
 Center     Atomic      Atomic             Coordinates (Angstroms)
 Number     Number       Type             X           Y           Z
 ---------------------------------------------------------------------
      1         15           0        0.000000    0.000000    0.000000
      2          1           0        0.803603    0.803603    0.803603
      3          1           0       -0.803603    0.803603   -0.803603
      4          1           0        0.803603   -0.803603   -0.803603
      5          1           0       -0.803603   -0.803603    0.803603
 ---------------------------------------------------------------------
 Rotational constants (GHZ):          97.0642102          97.0642102          97.0642102

 **********************************************************************

            Population analysis using the SCF Density.

 **********************************************************************

 Orbital symmetries:
       Occupied  (A1) (A1) (T2) (T2) (T2) (A1) (T2) (T2) (T2)
       Virtual   (T2) (T2) (T2) (A1) (T2) (T2) (T2) (A1) (A1) (T2)
                 (T2) (T2)
 The electronic state is 1-A1.
 Alpha  occ. eigenvalues --  -79.70007  -7.78275  -5.66816  -5.66816  -5.66816
 Alpha  occ. eigenvalues --   -1.19666  -0.83741  -0.83741  -0.83741
 Alpha virt. eigenvalues --   -0.06450  -0.06450  -0.06450  -0.01033   0.31492
 Alpha virt. eigenvalues --    0.31492   0.31492   0.41690   0.91346   1.02002
 Alpha virt. eigenvalues --    1.02002   1.02002
     Molecular Orbital Coefficients:
                           1         2         3         4         5
                        (A1)--O   (A1)--O   (T2)--O   (T2)--O   (T2)--O
     Eigenvalues --   -79.70007  -7.78275  -5.66816  -5.66816  -5.66816
   1 1   P  1S          0.98702  -0.29565   0.00000   0.00000   0.00000
   2        2S          0.04875   0.99698   0.00000   0.00000   0.00000
   3        2PX         0.00000   0.00000   0.00000   0.97282   0.00000
   4        2PY         0.00000   0.00000   0.97282   0.00000   0.00000
   5        2PZ         0.00000   0.00000   0.00000   0.00000   0.97282
   6        3S         -0.01549   0.13013   0.00000   0.00000   0.00000
   7        3PX         0.00000   0.00000   0.00000   0.08810   0.00000
   8        3PY         0.00000   0.00000   0.08810   0.00000   0.00000
   9        3PZ         0.00000   0.00000   0.00000   0.00000   0.08810
  10        4S          0.01096  -0.08717   0.00000   0.00000   0.00000
  11        4PX         0.00000   0.00000   0.00000  -0.03100   0.00000
  12        4PY         0.00000   0.00000  -0.03100   0.00000   0.00000
  13        4PZ         0.00000   0.00000   0.00000   0.00000  -0.03100
  14 2   H  1S          0.00095  -0.00487  -0.00414  -0.00414  -0.00414
  15        2S         -0.00199   0.01689   0.00603   0.00603   0.00603
  16 3   H  1S          0.00095  -0.00487  -0.00414   0.00414   0.00414
  17        2S         -0.00199   0.01689   0.00603  -0.00603  -0.00603
  18 4   H  1S          0.00095  -0.00487   0.00414  -0.00414   0.00414
  19        2S         -0.00199   0.01689  -0.00603   0.00603  -0.00603
  20 5   H  1S          0.00095  -0.00487   0.00414   0.00414  -0.00414
  21        2S         -0.00199   0.01689  -0.00603  -0.00603   0.00603
                           6         7         8         9        10
                        (A1)--O   (T2)--O   (T2)--O   (T2)--O   (T2)--V
     Eigenvalues --    -1.19666  -0.83741  -0.83741  -0.83741  -0.06450
   1 1   P  1S          0.06667   0.00000   0.00000   0.00000   0.00000
   2        2S         -0.35623   0.00000   0.00000   0.00000   0.00000
   3        2PX         0.00000   0.00000   0.00000  -0.20887   0.00000
   4        2PY         0.00000  -0.20887   0.00000   0.00000   0.00000
   5        2PZ         0.00000   0.00000  -0.20887   0.00000  -0.12531
   6        3S          0.43784   0.00000   0.00000   0.00000   0.00000
   7        3PX         0.00000   0.00000   0.00000   0.43339   0.00000
   8        3PY         0.00000   0.43339   0.00000   0.00000   0.00000
   9        3PZ         0.00000   0.00000   0.43339   0.00000   0.23717
  10        4S          0.44276   0.00000   0.00000   0.00000   0.00000
  11        4PX         0.00000   0.00000   0.00000   0.18636   0.00000
  12        4PY         0.00000   0.18636   0.00000   0.00000   0.00000
  13        4PZ         0.00000   0.00000   0.18636   0.00000   1.43311
  14 2   H  1S          0.11628   0.15572   0.15572   0.15572  -0.09316
  15        2S          0.03330   0.17336   0.17336   0.17336  -0.79944
  16 3   H  1S          0.11628   0.15572  -0.15572  -0.15572   0.09316
  17        2S          0.03330   0.17336  -0.17336  -0.17336   0.79944
  18 4   H  1S          0.11628  -0.15572  -0.15572   0.15572   0.09316
  19        2S          0.03330  -0.17336  -0.17336   0.17336   0.79944
  20 5   H  1S          0.11628  -0.15572   0.15572  -0.15572  -0.09316
  21        2S          0.03330  -0.17336   0.17336  -0.17336  -0.79944
                          11        12        13        14        15
                        (T2)--V   (T2)--V   (A1)--V   (T2)--V   (T2)--V
     Eigenvalues --    -0.06450  -0.06450  -0.01033   0.31492   0.31492
   1 1   P  1S          0.00000   0.00000   0.05532   0.00000   0.00000
   2        2S          0.00000   0.00000  -0.31193   0.00000   0.00000
   3        2PX        -0.12531   0.00000   0.00000   0.00000   0.00000
   4        2PY         0.00000  -0.12531   0.00000   0.00000   0.33029
   5        2PZ         0.00000   0.00000   0.00000   0.33029   0.00000
   6        3S          0.00000   0.00000   0.50805   0.00000   0.00000
   7        3PX         0.23717   0.00000   0.00000   0.00000   0.00000
   8        3PY         0.00000   0.23717   0.00000   0.00000  -1.24633
   9        3PZ         0.00000   0.00000   0.00000  -1.24633   0.00000
  10        4S          0.00000   0.00000   1.71487   0.00000   0.00000
  11        4PX         1.43311   0.00000   0.00000   0.00000   0.00000
  12        4PY         0.00000   1.43311   0.00000   0.00000   1.26627
  13        4PZ         0.00000   0.00000   0.00000   1.26627   0.00000
  14 2   H  1S         -0.09316  -0.09316  -0.08490  -0.08366  -0.08366
  15        2S         -0.79944  -0.79944  -0.86737  -0.00571  -0.00571
  16 3   H  1S          0.09316  -0.09316  -0.08490   0.08366  -0.08366
  17        2S          0.79944  -0.79944  -0.86737   0.00571  -0.00571
  18 4   H  1S         -0.09316   0.09316  -0.08490   0.08366   0.08366
  19        2S         -0.79944   0.79944  -0.86737   0.00571   0.00571
  20 5   H  1S          0.09316   0.09316  -0.08490  -0.08366   0.08366
  21        2S          0.79944   0.79944  -0.86737  -0.00571   0.00571
                          16        17        18        19        20
                        (T2)--V   (A1)--V   (A1)--V   (T2)--V   (T2)--V
     Eigenvalues --     0.31492   0.41690   0.91346   1.02002   1.02002
   1 1   P  1S          0.00000  -0.04465  -0.03654   0.00000   0.00000
   2        2S          0.00000   0.07634   0.12037   0.00000   0.00000
   3        2PX         0.33029   0.00000   0.00000  -0.15038   0.00000
   4        2PY         0.00000   0.00000   0.00000   0.00000   0.00000
   5        2PZ         0.00000   0.00000   0.00000   0.00000  -0.15038
   6        3S          0.00000  -2.01411  -1.08652   0.00000   0.00000
   7        3PX        -1.24633   0.00000   0.00000   0.43953   0.00000
   8        3PY         0.00000   0.00000   0.00000   0.00000   0.00000
   9        3PZ         0.00000   0.00000   0.00000   0.00000   0.43953
  10        4S          0.00000   3.84665   3.00565   0.00000   0.00000
  11        4PX         1.26627   0.00000   0.00000  -0.87782   0.00000
  12        4PY         0.00000   0.00000   0.00000   0.00000   0.00000
  13        4PZ         0.00000   0.00000   0.00000   0.00000  -0.87782
  14 2   H  1S         -0.08366  -0.20706   0.61830  -0.66905  -0.66905
  15        2S         -0.00571  -0.73876  -1.21422   0.89442   0.89442
  16 3   H  1S          0.08366  -0.20706   0.61830   0.66905   0.66905
  17        2S          0.00571  -0.73876  -1.21422  -0.89442  -0.89442
  18 4   H  1S         -0.08366  -0.20706   0.61830  -0.66905   0.66905
  19        2S         -0.00571  -0.73876  -1.21422   0.89442  -0.89442
  20 5   H  1S          0.08366  -0.20706   0.61830   0.66905  -0.66905
  21        2S          0.00571  -0.73876  -1.21422  -0.89442   0.89442
                          21
                        (T2)--V
     Eigenvalues --     1.02002
   1 1   P  1S          0.00000
   2        2S          0.00000
   3        2PX         0.00000
   4        2PY        -0.15038
   5        2PZ         0.00000
   6        3S          0.00000
   7        3PX         0.00000
   8        3PY         0.43953
   9        3PZ         0.00000
  10        4S          0.00000
  11        4PX         0.00000
  12        4PY        -0.87782
  13        4PZ         0.00000
  14 2   H  1S         -0.66905
  15        2S          0.89442
  16 3   H  1S         -0.66905
  17        2S          0.89442
  18 4   H  1S          0.66905
  19        2S         -0.89442
  20 5   H  1S          0.66905
  21        2S         -0.89442
     Density Matrix:
                           1         2         3         4         5
   1 1   P  1S          2.13212
   2        2S         -0.54077   2.24650
   3        2PX         0.00000   0.00000   1.98001
   4        2PY         0.00000   0.00000   0.00000   1.98001
   5        2PZ         0.00000   0.00000  -0.00000  -0.00000   1.98001
   6        3S         -0.04914  -0.05398   0.00000   0.00000   0.00000
   7        3PX         0.00000   0.00000  -0.00964  -0.00000   0.00000
   8        3PY         0.00000   0.00000  -0.00000  -0.00964   0.00000
   9        3PZ         0.00000   0.00000   0.00000   0.00000  -0.00964
  10        4S          0.13222  -0.48819   0.00000   0.00000   0.00000
  11        4PX         0.00000   0.00000  -0.13816  -0.00000   0.00000
  12        4PY         0.00000   0.00000  -0.00000  -0.13816   0.00000
  13        4PZ         0.00000   0.00000   0.00000   0.00000  -0.13816
  14 2   H  1S          0.02025  -0.09247  -0.07311  -0.07311  -0.07311
  15        2S         -0.00947   0.00977  -0.06068  -0.06068  -0.06068
  16 3   H  1S          0.02025  -0.09247   0.07311  -0.07311   0.07311
  17        2S         -0.00947   0.00977   0.06068  -0.06068   0.06068
  18 4   H  1S          0.02025  -0.09247  -0.07311   0.07311   0.07311
  19        2S         -0.00947   0.00977  -0.06068   0.06068   0.06068
  20 5   H  1S          0.02025  -0.09247   0.07311   0.07311  -0.07311
  21        2S         -0.00947   0.00977   0.06068   0.06068  -0.06068
                           6         7         8         9        10
   6        3S          0.41776
   7        3PX         0.00000   0.39117
   8        3PY         0.00000   0.00000   0.39117
   9        3PZ         0.00000  -0.00000  -0.00000   0.39117
  10        4S          0.36469   0.00000   0.00000   0.00000   0.40750
  11        4PX         0.00000   0.15607   0.00000  -0.00000   0.00000
  12        4PY         0.00000   0.00000   0.15607  -0.00000   0.00000
  13        4PZ         0.00000  -0.00000  -0.00000   0.15607   0.00000
  14 2   H  1S          0.10053   0.13424   0.13424   0.13424   0.10384
  15        2S          0.03362   0.15133   0.15133   0.15133   0.02650
  16 3   H  1S          0.10053  -0.13424   0.13424  -0.13424   0.10384
  17        2S          0.03362  -0.15133   0.15133  -0.15133   0.02650
  18 4   H  1S          0.10053   0.13424  -0.13424  -0.13424   0.10384
  19        2S          0.03362   0.15133  -0.15133  -0.15133   0.02650
  20 5   H  1S          0.10053  -0.13424  -0.13424   0.13424   0.10384
  21        2S          0.03362  -0.15133  -0.15133   0.15133   0.02650
                          11        12        13        14        15
  11        4PX         0.07138
  12        4PY         0.00000   0.07138
  13        4PZ        -0.00000  -0.00000   0.07138
  14 2   H  1S          0.05830   0.05830   0.05830   0.17269
  15        2S          0.06424   0.06424   0.06424   0.16940   0.18333
  16 3   H  1S         -0.05830   0.05830  -0.05830  -0.02144  -0.04637
  17        2S         -0.06424   0.06424  -0.06424  -0.04637  -0.05738
  18 4   H  1S          0.05830  -0.05830  -0.05830  -0.02144  -0.04637
  19        2S          0.06424  -0.06424  -0.06424  -0.04637  -0.05738
  20 5   H  1S         -0.05830  -0.05830   0.05830  -0.02144  -0.04637
  21        2S         -0.06424  -0.06424   0.06424  -0.04637  -0.05738
                          16        17        18        19        20
  16 3   H  1S          0.17269
  17        2S          0.16940   0.18333
  18 4   H  1S         -0.02144  -0.04637   0.17269
  19        2S         -0.04637  -0.05738   0.16940   0.18333
  20 5   H  1S         -0.02144  -0.04637  -0.02144  -0.04637   0.17269
  21        2S         -0.04637  -0.05738  -0.04637  -0.05738   0.16940
                          21
  21        2S          0.18333
    Full Mulliken population analysis:
                           1         2         3         4         5
   1 1   P  1S          2.13212
   2        2S         -0.13584   2.24650
   3        2PX         0.00000   0.00000   1.98001
   4        2PY         0.00000   0.00000   0.00000   1.98001
   5        2PZ         0.00000   0.00000   0.00000   0.00000   1.98001
   6        3S         -0.00166  -0.01908   0.00000   0.00000   0.00000
   7        3PX         0.00000   0.00000  -0.00292  -0.00000  -0.00000
   8        3PY         0.00000   0.00000  -0.00000  -0.00292  -0.00000
   9        3PZ         0.00000   0.00000  -0.00000  -0.00000  -0.00292
  10        4S          0.00435  -0.12450   0.00000   0.00000   0.00000
  11        4PX         0.00000   0.00000  -0.01022  -0.00000  -0.00000
  12        4PY         0.00000   0.00000  -0.00000  -0.01022  -0.00000
  13        4PZ         0.00000   0.00000  -0.00000  -0.00000  -0.01022
  14 2   H  1S          0.00001  -0.00079  -0.00050  -0.00050  -0.00050
  15        2S         -0.00012   0.00099  -0.00139  -0.00139  -0.00139
  16 3   H  1S          0.00001  -0.00079  -0.00050  -0.00050  -0.00050
  17        2S         -0.00012   0.00099  -0.00139  -0.00139  -0.00139
  18 4   H  1S          0.00001  -0.00079  -0.00050  -0.00050  -0.00050
  19        2S         -0.00012   0.00099  -0.00139  -0.00139  -0.00139
  20 5   H  1S          0.00001  -0.00079  -0.00050  -0.00050  -0.00050
  21        2S         -0.00012   0.00099  -0.00139  -0.00139  -0.00139
                           6         7         8         9        10
   6        3S          0.41776
   7        3PX         0.00000   0.39117
   8        3PY         0.00000   0.00000   0.39117
   9        3PZ         0.00000   0.00000   0.00000   0.39117
  10        4S          0.30414   0.00000   0.00000   0.00000   0.40750
  11        4PX         0.00000   0.10092   0.00000   0.00000   0.00000
  12        4PY         0.00000   0.00000   0.10092   0.00000   0.00000
  13        4PZ         0.00000   0.00000   0.00000   0.10092   0.00000
  14 2   H  1S          0.01593   0.02235   0.02235   0.02235   0.02582
  15        2S          0.01382   0.03339   0.03339   0.03339   0.01546
  16 3   H  1S          0.01593   0.02235   0.02235   0.02235   0.02582
  17        2S          0.01382   0.03339   0.03339   0.03339   0.01546
  18 4   H  1S          0.01593   0.02235   0.02235   0.02235   0.02582
  19        2S          0.01382   0.03339   0.03339   0.03339   0.01546
  20 5   H  1S          0.01593   0.02235   0.02235   0.02235   0.02582
  21        2S          0.01382   0.03339   0.03339   0.03339   0.01546
                          11        12        13        14        15
  11        4PX         0.07138
  12        4PY         0.00000   0.07138
  13        4PZ         0.00000   0.00000   0.07138
  14 2   H  1S          0.01350   0.01350   0.01350   0.17269
  15        2S          0.02389   0.02389   0.02389   0.10941   0.18333
  16 3   H  1S          0.01350   0.01350   0.01350  -0.00001  -0.00185
  17        2S          0.02389   0.02389   0.02389  -0.00185  -0.01059
  18 4   H  1S          0.01350   0.01350   0.01350  -0.00001  -0.00185
  19        2S          0.02389   0.02389   0.02389  -0.00185  -0.01059
  20 5   H  1S          0.01350   0.01350   0.01350  -0.00001  -0.00185
  21        2S          0.02389   0.02389   0.02389  -0.00185  -0.01059
                          16        17        18        19        20
  16 3   H  1S          0.17269
  17        2S          0.10941   0.18333
  18 4   H  1S         -0.00001  -0.00185   0.17269
  19        2S         -0.00185  -0.01059   0.10941   0.18333
  20 5   H  1S         -0.00001  -0.00185  -0.00001  -0.00185   0.17269
  21        2S         -0.00185  -0.01059  -0.00185  -0.01059   0.10941
                          21
  21        2S          0.18333
     Gross orbital populations:
                           1
   1 1   P  1S          1.99852
   2        2S          1.96789
   3        2PX         1.95934
   4        2PY         1.95934
   5        2PZ         1.95934
   6        3S          0.82019
   7        3PX         0.71214
   8        3PY         0.71214
   9        3PZ         0.71214
  10        4S          0.75662
  11        4PX         0.31165
  12        4PY         0.31165
  13        4PZ         0.31165
  14 2   H  1S          0.42356
  15        2S          0.45329
  16 3   H  1S          0.42356
  17        2S          0.45329
  18 4   H  1S          0.42356
  19        2S          0.45329
  20 5   H  1S          0.42356
  21        2S          0.45329
          Condensed to atoms (all electrons):
               1          2          3          4          5
     1  P   13.113091   0.344881   0.344881   0.344881   0.344881
     2  H    0.344881   0.574845  -0.014293  -0.014293  -0.014293
     3  H    0.344881  -0.014293   0.574845  -0.014293  -0.014293
     4  H    0.344881  -0.014293  -0.014293   0.574845  -0.014293
     5  H    0.344881  -0.014293  -0.014293  -0.014293   0.574845
 Mulliken charges:
               1
     1  P    0.507386
     2  H    0.123154
     3  H    0.123154
     4  H    0.123154
     5  H    0.123154
 Sum of Mulliken charges =   1.00000
 Mulliken charges with hydrogens summed into heavy atoms:
               1
     1  P    1.000000
 Electronic spatial extent (au):  <R**2>=             54.2402
 Charge=              1.0000 electrons
 Dipole moment (field-independent basis, Debye):
    X=              0.0000    Y=              0.0000    Z=              0.0000  Tot=              0.0000
 Quadrupole moment (field-independent basis, Debye-Ang):
   XX=            -11.9111   YY=            -11.9111   ZZ=            -11.9111
   XY=              0.0000   XZ=             -0.0000   YZ=              0.0000
 Traceless Quadrupole moment (field-independent basis, Debye-Ang):
   XX=             -0.0000   YY=              0.0000   ZZ=             -0.0000
   XY=              0.0000   XZ=             -0.0000   YZ=              0.0000
 Octapole moment (field-independent basis, Debye-Ang**2):
  XXX=              0.0000  YYY=              0.0000  ZZZ=              0.0000  XYY=              0.0000
[...]
 Calling FoFJK, ICntrl=    100127 FMM=F ISym2X=1 I1Cent= 0 IOpClX= 0 NMat=1 NMatS=1 NMatT=0.
 Full mass-weighted force constant matrix:
 Low frequencies ---   -3.8319   -3.8319   -3.8319   -0.0031   -0.0030   -0.0029
 Low frequencies --- 1040.1654 1040.1654 1040.1654
 Diagonal vibrational polarizability:
        0.3034313       0.3034313       0.3034313
 Diagonal vibrational hyperpolarizability:
        0.0000000       0.0000000       0.0000000
 Harmonic frequencies (cm**-1), IR intensities (KM/Mole), Raman scattering
 activities (A**4/AMU), depolarization ratios for plane and unpolarized
 incident light, reduced masses (AMU), force constants (mDyne/A),
 and normal coordinates:
                      1                      2                      3
                     T2                     T2                     T2
 Frequencies --   1040.1654              1040.1654              1040.1654
 Red. masses --      1.0881                 1.0881                 1.0881
 Frc consts  --      0.6936                 0.6936                 0.6936
 IR Inten    --      7.0666                 7.0666                 7.0666
 Raman Activ --     10.3544                10.3544                10.3544
 Depolar (P) --      0.7500                 0.7500                 0.7500
 Depolar (U) --      0.8571                 0.8571                 0.8571
  Atom  AN      X      Y      Z        X      Y      Z        X      Y      Z
     1  15    -0.03  -0.03  -0.03     0.03  -0.04   0.01     0.03   0.01  -0.04
     2   1    -0.02  -0.01  -0.01    -0.35   0.48  -0.13    -0.35  -0.13   0.48
     3   1     0.23   0.48   0.24    -0.02   0.14   0.21    -0.45  -0.04   0.39
     4   1     0.47   0.23   0.23    -0.11   0.23  -0.38    -0.11  -0.38   0.23
     5   1     0.22   0.24   0.48    -0.45   0.39  -0.04    -0.02   0.20   0.14
                      4                      5                      6
                      E                      E                     A1
 Frequencies --   1241.8515              1241.8515              2558.4919
 Red. masses --      1.0078                 1.0078                 1.0078
 Frc consts  --      0.9157                 0.9157                 3.8869
 IR Inten    --      0.0000                 0.0000                 0.0000
 Raman Activ --     60.4252                60.4252               255.3850
 Depolar (P) --      0.7500                 0.7500                -0.0000
 Depolar (U) --      0.8571                 0.8571                -0.0000
  Atom  AN      X      Y      Z        X      Y      Z        X      Y      Z
     1  15    -0.00   0.00  -0.00     0.00  -0.00  -0.00     0.00   0.00   0.00
     2   1    -0.09   0.39  -0.30     0.40  -0.12  -0.28     0.29   0.29   0.29
     3   1     0.09   0.39   0.30    -0.40  -0.12   0.28    -0.29   0.29  -0.29
     4   1    -0.09  -0.39   0.30     0.40   0.12   0.28     0.29  -0.29  -0.29
     5   1     0.09  -0.39  -0.30    -0.40   0.12  -0.28    -0.29  -0.29   0.29
                      7                      8                      9
                     T2                     T2                     T2
 Frequencies --   2603.7157              2603.7157              2603.7157
 Red. masses --      1.0473                 1.0473                 1.0473
 Frc consts  --      4.1831                 4.1831                 4.1831
 IR Inten    --     32.1605                32.1605                32.1605
 Raman Activ --     69.9067                69.9067                69.9067
 Depolar (P) --      0.7500                 0.7500                 0.7500
 Depolar (U) --      0.8571                 0.8571                 0.8571
  Atom  AN      X      Y      Z        X      Y      Z        X      Y      Z
     1  15    -0.01   0.03  -0.02     0.03  -0.00  -0.03    -0.02  -0.02  -0.02
     2   1     0.00   0.02  -0.00     0.01  -0.00  -0.01     0.50   0.50   0.50
     3   1     0.47  -0.47   0.47    -0.00   0.01  -0.02     0.16  -0.17   0.16
     4   1     0.22  -0.21  -0.23    -0.41   0.42   0.41    -0.18   0.16   0.16
     5   1    -0.25  -0.24   0.24    -0.40  -0.41   0.40     0.16   0.16  -0.18

 -------------------
 - Thermochemistry -
 -------------------
 Temperature   298.150 Kelvin.  Pressure   1.00000 Atm.
 Atom     1 has atomic number 15 and mass  30.97376
 Atom     2 has atomic number  1 and mass   1.00783
 Atom     3 has atomic number  1 and mass   1.00783
 Atom     4 has atomic number  1 and mass   1.00783
 Atom     5 has atomic number  1 and mass   1.00783
 Molecular mass:    35.00506 amu.
 Principal axes and moments of inertia in atomic units:
                           1         2         3
     Eigenvalues --    18.59327  18.59327  18.59327
           X            0.83019   0.53436  -0.15886
           Y            0.10370   0.13197   0.98581
           Z           -0.54775   0.83489  -0.05414
 This molecule is a spherical top.
 Rotational symmetry number 12.
 Rotational temperatures (Kelvin)      4.65835     4.65835     4.65835
 Rotational constants (GHZ):          97.06421    97.06421    97.06421
 Zero-point vibrational energy      95544.8 (Joules/Mol)
                                   22.83575 (Kcal/Mol)
 Vibrational temperatures:   1496.57  1496.57  1496.57  1786.75  1786.75
          (Kelvin)           3681.10  3746.17  3746.17  3746.17
 
 Zero-point correction=                           0.036391 (Hartree/Particle)
 Thermal correction to Energy=                    0.039347
 Thermal correction to Enthalpy=                  0.040291
 Thermal correction to Gibbs Free Energy=         0.017259
 Sum of electronic and zero-point Energies=           -340.961780
 Sum of electronic and thermal Energies=              -340.958824
 Sum of electronic and thermal Enthalpies=            -340.957880
 Sum of electronic and thermal Free Energies=         -340.980912
 
                     E (Thermal)             CV                S
                      KCal/Mol        Cal/Mol-Kelvin    Cal/Mol-Kelvin
 Total                   24.690              7.330             48.475
 Electronic               0.000              0.000              0.000
 Translational            0.889              2.981             36.589
 Rotational               0.889              2.981             11.577
 Vibrational             22.913              1.369              0.309
                       Q            Log10(Q)             Ln(Q)
 Total Bot       0.115198D-07         -7.938557        -18.279203
 Total V=0       0.631195D+09          8.800164         20.263126
 Vib (Bot)       0.187109D-16        -16.727905        -38.517425
 Vib (V=0)       0.102522D+01          0.010816          0.024904
 Electronic      0.100000D+01          0.000000          0.000000
 Translational   0.814048D+07          6.910650         15.912360
 Rotational      0.756307D+02          1.878698          4.325862
 ***** Axes restored to original set *****
 -------------------------------------------------------------------
 Center     Atomic                   Forces (Hartrees/Bohr)
 Number     Number              X              Y              Z
 -------------------------------------------------------------------
      1       15          -0.000000000   -0.000000000   -0.000000000
      2        1          -0.000000000    0.000001387   -0.000000490
      3        1          -0.000001201   -0.000000693   -0.000000490
      4        1           0.000001201   -0.000000693   -0.000000490
      5        1          -0.000000000    0.000000000    0.000001471
 -------------------------------------------------------------------
 Cartesian Forces:  Max     0.000001471 RMS     0.000000760
 FormGI is forming the generalized inverse of G from B-inverse, IUseBI=4.

 GradGradGradGradGradGradGradGradGradGradGradGradGradGradGradGradGradGrad
 Berny optimization.
 Internal  Forces:  Max     0.000001471 RMS     0.000000786
 Search for a local minimum.
 Step number   1 out of a maximum of    2
 All quantities printed in internal units (Hartrees-Bohrs-Radians)
 Second derivative matrix not updated -- analytic derivatives used.
 The second derivative matrix:
                          R1        R2        R3        R4        A1
           R1           0.24872
           R2           0.00031   0.24872
           R3           0.00031   0.00031   0.24872
           R4           0.00031   0.00031   0.00031   0.24872
           A1           0.00104   0.00104  -0.00065  -0.00143   0.02027
           A2           0.00163  -0.00042   0.00182  -0.00303  -0.00877
           A3           0.00319  -0.00256  -0.00283   0.00220  -0.01335
           A4          -0.00042   0.00163   0.00182  -0.00303  -0.00877
           A5          -0.00256   0.00319  -0.00283   0.00220  -0.01335
           A6          -0.00288  -0.00288   0.00269   0.00308   0.02396
           D1          -0.00202  -0.00202  -0.00142   0.00546  -0.01409
           D2           0.00166   0.00166  -0.00427   0.00095   0.00848
           D3          -0.00219   0.00385  -0.00214   0.00047   0.00424
           D4          -0.00385   0.00219   0.00214  -0.00047  -0.00424
                          A2        A3        A4        A5        A6
           A2           0.03846
           A3          -0.02324   0.07512
           A4          -0.00172   0.02468   0.03846
           A5           0.02468  -0.03604  -0.02324   0.07512
           A6          -0.02942  -0.02718  -0.02942  -0.02718   0.08922
           D1          -0.01176   0.01547  -0.01176   0.01547   0.00668
           D2          -0.00985   0.00758  -0.00985   0.00758  -0.00394
           D3          -0.01486  -0.00090   0.00500   0.00848  -0.00197
           D4          -0.00500  -0.00848   0.01486   0.00090   0.00197
                          D1        D2        D3        D4
           D1           0.03166
           D2           0.00168   0.01967
           D3           0.00084   0.00984   0.01995
           D4          -0.00084  -0.00984   0.01011   0.01995
 ITU=  0
     Eigenvalues ---    0.04058   0.04582   0.06998   0.13494   0.13515
     Eigenvalues ---    0.24883   0.24883   0.24895   0.24966
 Angle between quadratic step and forces=   0.00 degrees.
 Linear search not attempted -- first point.
 Iteration  1 RMS(Cart)=  0.00000315 RMS(Int)=  0.00000000
 Iteration  2 RMS(Cart)=  0.00000000 RMS(Int)=  0.00000000
 ClnCor:  largest displacement from symmetrization is 6.73D-14 for atom     4.
 Variable       Old X    -DE/DX   Delta X   Delta X   Delta X     New X
                                 (Linear)    (Quad)   (Total)
    R1        2.63027   0.00000   0.00000   0.00001   0.00001   2.63028
    R2        2.63027   0.00000   0.00000   0.00001   0.00001   2.63028
    R3        2.63027   0.00000   0.00000   0.00001   0.00001   2.63028
    R4        2.63027   0.00000   0.00000   0.00001   0.00001   2.63028
    A1        1.91063  -0.00000   0.00000   0.00000   0.00000   1.91063
    A2        1.91063  -0.00000   0.00000   0.00000   0.00000   1.91063
    A3        1.91063   0.00000   0.00000   0.00000   0.00000   1.91063
    A4        1.91063   0.00000   0.00000  -0.00000  -0.00000   1.91063
    A5        1.91063   0.00000   0.00000  -0.00000   0.00000   1.91063
    A6        1.91063  -0.00000   0.00000  -0.00000  -0.00000   1.91063
    D1       -2.09440   0.00000   0.00000  -0.00000   0.00000  -2.09440
    D2        2.09440  -0.00000   0.00000   0.00000   0.00000   2.09440
    D3       -2.09440   0.00000   0.00000  -0.00000   0.00000  -2.09440
    D4        2.09440   0.00000   0.00000  -0.00000   0.00000   2.09440
         Item               Value     Threshold  Converged?
 Maximum Force            0.000001     0.000450     YES
 RMS     Force            0.000001     0.000300     YES
 Maximum Displacement     0.000006     0.001800     YES
 RMS     Displacement     0.000003     0.001200     YES
 Predicted change in Energy=-1.733559D-11
 Optimization completed.
    -- Stationary point found.
                           ----------------------------
                           !   Optimized Parameters   !
                           ! (Angstroms and Degrees)  !
 --------------------------                            --------------------------
 ! Name  Definition              Value          Derivative Info.                !
 --------------------------------------------------------------------------------
 ! R1    R(1,2)                  1.3919         -DE/DX =    0.0                 !
 ! R2    R(1,3)                  1.3919         -DE/DX =    0.0                 !
 ! R3    R(1,4)                  1.3919         -DE/DX =    0.0                 !
 ! R4    R(1,5)                  1.3919         -DE/DX =    0.0                 !
 ! A1    A(2,1,3)              109.4712         -DE/DX =    0.0                 !
 ! A2    A(2,1,4)              109.4712         -DE/DX =    0.0                 !
 ! A3    A(2,1,5)              109.4712         -DE/DX =    0.0                 !
 ! A4    A(3,1,4)              109.4712         -DE/DX =    0.0                 !
 ! A5    A(3,1,5)              109.4712         -DE/DX =    0.0                 !
 ! A6    A(4,1,5)              109.4712         -DE/DX =    0.0                 !
 ! D1    D(2,1,4,3)           -120.0            -DE/DX =    0.0                 !
 ! D2    D(2,1,5,3)            120.0            -DE/DX =    0.0                 !
 ! D3    D(2,1,5,4)           -120.0            -DE/DX =    0.0                 !
 ! D4    D(3,1,5,4)            120.0            -DE/DX =    0.0                 !
 --------------------------------------------------------------------------------
 GradGradGradGradGradGradGradGradGradGradGradGradGradGradGradGradGradGrad

 Dipole is zero, so no output in dipole orientation.

 ----------------------------------------------------------------------

 Electric dipole moment (input orientation):
 (Debye = 10**-18 statcoulomb cm , SI units = C m)
                  (au)            (Debye)         (10**-30 SI)
   Tot        0.000000D+00      0.000000D+00      0.000000D+00
   x          0.000000D+00      0.000000D+00      0.000000D+00
   y          0.000000D+00      0.000000D+00      0.000000D+00
   z          0.000000D+00      0.000000D+00      0.000000D+00

 Dipole polarizability, Alpha (input orientation).
 (esu units = cm**3 , SI units = C**2 m**2 J**-1)
 Alpha(0;0):
               (au)            (10**-24 esu)      (10**-40 SI)
   iso        0.176759D+02      0.261930D+01      0.291436D+01
   aniso      0.000000D+00      0.000000D+00      0.000000D+00
   xx         0.176759D+02      0.261930D+01      0.291436D+01
   yx         0.000000D+00      0.000000D+00      0.000000D+00
   yy         0.176759D+02      0.261930D+01      0.291436D+01
   zx         0.000000D+00      0.000000D+00      0.000000D+00
   zy         0.000000D+00      0.000000D+00      0.000000D+00
   zz         0.176759D+02      0.261930D+01      0.291436D+01

 First dipole hyperpolarizability, Beta (input orientation).
 ||, _|_  parallel and perpendicular components, (z) with respect to z axis,
 vector components x,y,z.  Values do not include the 1/n! factor of 1/2.
 (esu units = statvolt**-1 cm**4 , SI units = C**3 m**3 J**-2)
 Beta(0;0,0):
               (au)            (10**-30 esu)      (10**-50 SI)
   || (z)     0.000000D+00      0.000000D+00      0.000000D+00
   _|_(z)     0.000000D+00      0.000000D+00      0.000000D+00
   x          0.000000D+00      0.000000D+00      0.000000D+00
   y          0.000000D+00      0.000000D+00      0.000000D+00
   z          0.000000D+00      0.000000D+00      0.000000D+00
   ||         0.000000D+00      0.000000D+00      0.000000D+00
   xxx        0.000000D+00      0.000000D+00      0.000000D+00
   xxy       -0.176784D+02     -0.152727D+00     -0.566832D-01
   yxy        0.000000D+00      0.000000D+00      0.000000D+00
   yyy        0.176779D+02      0.152723D+00      0.566816D-01
   xxz       -0.125002D+02     -0.107992D+00     -0.400802D-01
   yxz        0.000000D+00      0.000000D+00      0.000000D+00
   yyz       -0.125006D+02     -0.107995D+00     -0.400813D-01
   zxz        0.000000D+00      0.000000D+00      0.000000D+00
   zyz        0.499569D-03      0.431588D-05      0.160180D-05
   zzz        0.250008D+02      0.215987D+00      0.801616D-01

 ----------------------------------------------------------------------
 1\1\GINC-IISERK51\Freq\RHF\3-21G\H4P1(1+)\GAUSSIAN\16-Jun-2025\0\\#N G
 eom=AllCheck Guess=TCheck SCRF=Check GenChk RHF/3-21G Freq\\PH4+ opt\\
 1,1\P,0.,0.0000000005,0.1215190005\H,-0.0000000099,1.3122733359,-0.342
 4544365\H,-1.1364660393,-0.6561436377,-0.3424347949\H,1.1364660799,-0.
 6561436029,-0.342434745\H,-0.0000000306,0.0000139068,1.5133999785\\Ver
 sion=EM64L-G16RevB.01\State=1-A1\HF=-340.9981711\RMSD=0.000e+00\RMSF=7
 .596e-07\ZeroPoint=0.0363911\Thermal=0.0393467\Dipole=0.,0.,0.\DipoleD
 eriv=0.8162249,0.,0.,0.,0.8162249,0.,0.,0.,0.8162249,-0.0240764,0.,0.,
 0.,0.1626428,-0.0660173,0.,-0.0660173,-0.000735,0.1159639,0.0808529,0.
 0571704,0.0808529,0.0226044,0.0330076,0.0571704,0.0330076,-0.000737,0.
 115964,-0.0808529,-0.0571704,-0.0808529,0.0226044,0.0330076,-0.0571704
 ,0.0330076,-0.000737,-0.0240764,0.,0.,0.,-0.0240764,0.0000021,0.,0.000
 0021,0.1859841\Polar=17.675879,0.,17.675879,0.,0.,17.675879\PolarDeriv
 =-0.0000002,2.6954447,0.,1.9059269,0.,0.0000002,2.695445,0.,-2.6953684
 ,0.,1.9059807,-0.0000759,1.9059268,0.,1.9059806,0.0000002,-0.0000762,-
 3.8119076,0.,3.0404014,0.,-1.5740945,0.,0.,0.808206,0.,9.8554737,0.,-1
 .957434,1.4143241,-0.7848692,0.,-1.1682087,0.,3.6465195,-2.3172771,-7.
 8928734,-2.6326559,-1.342198,-1.8615294,-0.1659821,-1.2248235,-1.51654
 63,-3.2753427,-3.8153759,-0.1659821,-1.6698819,-0.7071439,-1.0723375,-
 0.1659821,-0.88069,-3.1579682,-1.8232534,-2.3171467,7.8928738,-2.63265
 58,1.342198,-1.8615293,0.1659821,1.2248235,-1.5165463,3.2753428,-3.815
 3756,0.1659821,-1.6698817,-0.7071438,-1.0723374,0.1659821,-0.8806899,3
 .1579682,-1.8232533,-2.3171464,-0.0000002,-0.4705357,0.,3.3912255,0.,0
 .,-0.4705593,0.,0.4706475,0.,3.3912161,0.0000398,1.0236164,0.,1.023607
 ,-0.0000001,0.0000634,10.7634795\HyperPolar=0.0000016,-17.6783517,-0.0
 000005,17.6778521,-12.5002174,-0.0000004,-12.5005706,-0.0000011,0.0004
 996,25.000788\Quadrupole=0.,0.,0.,0.,0.,0.\PG=TD [O(P1),4C3(H1)]\NImag
 =0\\0.40602175,0.,0.40602175,0.,0.,0.40602175,-0.03313562,0.,0.,0.0290
 3466,0.,-0.21545384,0.06446127,0.,0.22430510,0.,0.06446127,-0.05592685
 ,0.,-0.06904072,0.05344502,-0.16987525,-0.07894722,-0.05582293,0.00223
 771,0.00123827,0.00116180,0.17548852,-0.07894722,-0.07871615,-0.032229
 61,-0.01547148,-0.00597994,-0.00749244,0.08455577,0.07785331,-0.055822
 93,-0.03222961,-0.05592492,0.00706978,0.00274019,0.00298608,0.05978870
 ,0.03451927,0.05344295,-0.16987526,0.07894722,0.05582293,0.00223771,-0
 .00123827,-0.00116180,-0.01008868,0.00835497,0.00590773,0.17548853,0.0
 7894722,-0.07871614,-0.03222961,0.01547148,-0.00597993,-0.00749244,-0.
 00835497,0.00634660,0.00475239,-0.08455577,0.07785330,0.05582293,-0.03
 222961,-0.05592492,-0.00706978,0.00274019,0.00298608,-0.00590773,0.004
 75239,0.00298593,-0.05978869,0.03451926,0.05344294,-0.03313563,0.,0.,-
 0.00037444,0.,0.,0.00223771,0.00150796,-0.01694328,0.00223771,-0.00150
 796,0.01694328,0.02903466,0.,-0.03313563,-0.00000205,0.,0.00310861,0.0
 1956433,0.00150813,0.00049618,-0.00978224,-0.00150813,0.00049618,-0.00
 978224,0.,0.02903466,0.,-0.00000205,-0.23824506,0.,-0.00090093,-0.0034
 9032,0.00078016,0.00045039,-0.00349004,-0.00078016,0.00045039,-0.00349
 004,0.,0.00000219,0.24871545\\0.,0.,0.,0.,-0.00000139,0.00000049,0.000
 00120,0.00000069,0.00000049,-0.00000120,0.00000069,0.00000049,0.,0.,-0
 .00000147\\\@


 DO NOT LET SELFISH MEN OR GREEDY INTERESTS SKIN YOUR COUNTRY OF ITS
 BEAUTY, ITS RICHES, OR ITS ROMANCE. -- THEODORE ROOSEVELT
 Job cpu time:       0 days  0 hours  0 minutes  0.7 seconds.
 Elapsed time:       0 days  0 hours  0 minutes  0.7 seconds.
 File lengths (MBytes):  RWF=      6 Int=      0 D2E=      0 Chk=      1 Scr=      1
 Normal termination of Gaussian 16 at Mon Jun 16 16:25:31 2025.
