 Entering Gaussian System, Link 0=g16
 Input=/home/gaussian/Documents/Summer_Internship/Acid_Base_adduct/Acid/BF3/MX3-/MX3_planar_ion_reopt.com
 Output=/home/gaussian/Documents/Summer_Internship/Acid_Base_adduct/Acid/BF3/MX3-/MX3_planar_ion_reopt.log
 Initial command:
 /usr/local/g16/l1.exe "/home/gaussian/tmp/Gau-77867.inp" -scrdir="/home/gaussian/tmp/"
 Entering Link 1 = /usr/local/g16/l1.exe PID=     77870.
  
 Copyright (c) 1988-2017, Gaussian, Inc.  All Rights Reserved.
  
 This is part of the Gaussian(R) 16 program.  It is based on
 the Gaussian(R) 09 system (copyright 2009, Gaussian, Inc.),
 the Gaussian(R) 03 system (copyright 2003, Gaussian, Inc.),
 the Gaussian(R) 98 system (copyright 1998, Gaussian, Inc.),
 the Gaussian(R) 94 system (copyright 1995, Gaussian, Inc.),
 the Gaussian 92(TM) system (copyright 1992, Gaussian, Inc.),
 the Gaussian 90(TM) system (copyright 1990, Gaussian, Inc.),
 the Gaussian 88(TM) system (copyright 1988, Gaussian, Inc.),
 the Gaussian 86(TM) system (copyright 1986, Carnegie Mellon
 University), and the Gaussian 82(TM) system (copyright 1983,
 Carnegie Mellon University). Gaussian is a federally registered
 trademark of Gaussian, Inc.
  
 This software contains proprietary and confidential information,
 including trade secrets, belonging to Gaussian, Inc.
  
 This software is provided under written license and may be
 used, copied, transmitted, or stored only in accord with that
 written license.
  
 The following legend is applicable only to US Government
 contracts under FAR:
  
                    RESTRICTED RIGHTS LEGEND
  
 Use, reproduction and disclosure by the US Government is
 subject to restrictions as set forth in subparagraphs (a)
 and (c) of the Commercial Computer Software - Restricted
 Rights clause in FAR 52.227-19.
  
 Gaussian, Inc.
 340 Quinnipiac St., Bldg. 40, Wallingford CT 06492
  
  
 ---------------------------------------------------------------
 Warning -- This program may not be used in any manner that
 competes with the business of Gaussian, Inc. or will provide
 assistance to any competitor of Gaussian, Inc.  The licensee
 of this program is prohibited from giving any competitor of
 Gaussian, Inc. access to this program.  By using this program,
 the user acknowledges that Gaussian, Inc. is engaged in the
 business of creating and licensing software in the field of
 computational chemistry and represents and warrants to the
 licensee that it is not a competitor of Gaussian, Inc. and that
 it will not use this program in any manner prohibited above.
 ---------------------------------------------------------------
  

 Cite this work as:
 Gaussian 16, Revision B.01,
 M. J. Frisch, G. W. Trucks, H. B. Schlegel, G. E. Scuseria, 
 M. A. Robb, J. R. Cheeseman, G. Scalmani, V. Barone, 
 G. A. Petersson, H. Nakatsuji, X. Li, M. Caricato, A. V. Marenich, 
 J. Bloino, B. G. Janesko, R. Gomperts, B. Mennucci, H. P. Hratchian, 
 J. V. Ortiz, A. F. Izmaylov, J. L. Sonnenberg, D. Williams-Young, 
 F. Ding, F. Lipparini, F. Egidi, J. Goings, B. Peng, A. Petrone, 
 T. Henderson, D. Ranasinghe, V. G. Zakrzewski, J. Gao, N. Rega, 
 G. Zheng, W. Liang, M. Hada, M. Ehara, K. Toyota, R. Fukuda, 
 J. Hasegawa, M. Ishida, T. Nakajima, Y. Honda, O. Kitao, H. Nakai, 
 T. Vreven, K. Throssell, J. A. Montgomery, Jr., J. E. Peralta, 
 F. Ogliaro, M. J. Bearpark, J. J. Heyd, E. N. Brothers, K. N. Kudin, 
 V. N. Staroverov, T. A. Keith, R. Kobayashi, J. Normand, 
 K. Raghavachari, A. P. Rendell, J. C. Burant, S. S. Iyengar, 
 J. Tomasi, M. Cossi, J. M. Millam, M. Klene, C. Adamo, R. Cammi, 
 J. W. Ochterski, R. L. Martin, K. Morokuma, O. Farkas, 
 J. B. Foresman, and D. J. Fox, Gaussian, Inc., Wallingford CT, 2016.
 
 ******************************************
 Gaussian 16:  EM64L-G16RevB.01 20-Dec-2017
                16-Jun-2025 
 ******************************************
 %chk=MX3_planar_ion_reopt.chk
 -----------------------------------------------
 # opt freq uhf/3-21g pop=full geom=connectivity
 -----------------------------------------------
 1/18=20,19=15,38=1,57=2/1,3;
 2/9=110,12=2,17=6,18=5,40=1/2;
 3/5=5,11=2,25=1,30=1,71=1,116=2/1,2,3;
 4//1;
 5/5=2,38=5/2;
 6/7=3,28=1/1;
 7//1,2,3,16;
 1/18=20,19=15/3(2);
 2/9=110/2;
 99//99;
 2/9=110/2;
 3/5=5,11=2,25=1,30=1,71=1,116=2/1,2,3;
 4/5=5,16=3,69=1/1;
 5/5=2,38=5/2;
 7//1,2,3,16;
 1/18=20,19=15/3(-5);
 2/9=110/2;
 6/7=3,19=2,28=1/1;
 99/9=1/99;
 -------------------------
 BF3- planar opt structure
 -------------------------
 Symbolic Z-matrix:
 Charge = -1 Multiplicity = 2
 B                     0.        0.       -0.494 
 F                     0.        1.42158   0.0936 
 F                     1.23113  -0.71079   0.0936 
 F                    -1.23113  -0.71079   0.0936 
 

 GradGradGradGradGradGradGradGradGradGradGradGradGradGradGradGradGradGrad
 Berny optimization.
 Initialization pass.
                           ----------------------------
                           !    Initial Parameters    !
                           ! (Angstroms and Degrees)  !
 --------------------------                            --------------------------
 ! Name  Definition              Value          Derivative Info.                !
 --------------------------------------------------------------------------------
 ! R1    R(1,2)                  1.5382         estimate D2E/DX2                !
 ! R2    R(1,3)                  1.5382         estimate D2E/DX2                !
 ! R3    R(1,4)                  1.5382         estimate D2E/DX2                !
 ! A1    A(2,1,3)              106.327          estimate D2E/DX2                !
 ! A2    A(2,1,4)              106.327          estimate D2E/DX2                !
 ! A3    A(3,1,4)              106.327          estimate D2E/DX2                !
 ! D1    D(2,1,4,3)           -113.0199         estimate D2E/DX2                !
 --------------------------------------------------------------------------------
 Trust Radius=3.00D-01 FncErr=1.00D-07 GrdErr=1.00D-07 EigMax=2.50D+02 EigMin=1.00D-04
 Number of steps in this run=     20 maximum allowed number of steps=    100.
 GradGradGradGradGradGradGradGradGradGradGradGradGradGradGradGradGradGrad

                          Input orientation:                          
 ---------------------------------------------------------------------
 Center     Atomic      Atomic             Coordinates (Angstroms)
 Number     Number       Type             X           Y           Z
 ---------------------------------------------------------------------
      1          5           0        0.000000    0.000000   -0.494000
      2          9           0        0.000000    1.421583    0.093600
      3          9           0        1.231127   -0.710791    0.093600
      4          9           0       -1.231127   -0.710791    0.093600
 ---------------------------------------------------------------------
                    Distance matrix (angstroms):
                    1          2          3          4
     1  B    0.000000
     2  F    1.538237   0.000000
     3  F    1.538236   2.462254   0.000000
     4  F    1.538236   2.462254   2.462254   0.000000
 Stoichiometry    BF3(1-,2)
 Framework group  C3V[C3(B),3SGV(F)]
 Deg. of freedom     2
 Full point group                 C3V     NOp   6
 Largest Abelian subgroup         CS      NOp   2
 Largest concise Abelian subgroup CS      NOp   2
                         Standard orientation:                         
 ---------------------------------------------------------------------
 Center     Atomic      Atomic             Coordinates (Angstroms)
 Number     Number       Type             X           Y           Z
 ---------------------------------------------------------------------
      1          5           0        0.000000   -0.000000    0.495788
      2          9           0        0.000000    1.421583   -0.091813
      3          9           0       -1.231127   -0.710791   -0.091813
      4          9           0        1.231127   -0.710791   -0.091813
 ---------------------------------------------------------------------
 Rotational constants (GHZ):           8.3153582           8.3153582           4.3876762
 Standard basis: 3-21G (6D, 7F)
 There are    23 symmetry adapted cartesian basis functions of A'  symmetry.
 There are    13 symmetry adapted cartesian basis functions of A"  symmetry.
 There are    23 symmetry adapted basis functions of A'  symmetry.
 There are    13 symmetry adapted basis functions of A"  symmetry.
    36 basis functions,    60 primitive gaussians,    36 cartesian basis functions
    17 alpha electrons       16 beta electrons
       nuclear repulsion energy        98.6666394093 Hartrees.
 NAtoms=    4 NActive=    4 NUniq=    2 SFac= 4.00D+00 NAtFMM=   60 NAOKFM=F Big=F
 Integral buffers will be    131072 words long.
 Raffenetti 2 integral format.
 Two-electron integral symmetry is turned on.
 One-electron integrals computed using PRISM.
 NBasis=    36 RedAO= T EigKep=  8.84D-02  NBF=    23    13
 NBsUse=    36 1.00D-06 EigRej= -1.00D+00 NBFU=    23    13
 ExpMin= 1.24D-01 ExpMax= 4.14D+02 ExpMxC= 4.14D+02 IAcc=3 IRadAn=         5 AccDes= 0.00D+00
 Harris functional with IExCor=  205 and IRadAn=       5 diagonalized for initial guess.
 HarFok:  IExCor=  205 AccDes= 0.00D+00 IRadAn=         5 IDoV= 1 UseB2=F ITyADJ=14
 ICtDFT=  3500011 ScaDFX=  1.000000  1.000000  1.000000  1.000000
 FoFCou: FMM=F IPFlag=           0 FMFlag=      100000 FMFlg1=           0
         NFxFlg=           0 DoJE=T BraDBF=F KetDBF=T FulRan=T
         wScrn=  0.000000 ICntrl=       500 IOpCl=  0 I1Cent=   200000004 NGrid=           0
         NMat0=    1 NMatS0=      1 NMatT0=    0 NMatD0=    1 NMtDS0=    0 NMtDT0=    0
 Petite list used in FoFCou.
 Initial guess orbital symmetries:
 Alpha Orbitals:
       Occupied  (A1) (E) (E) (A1) (A1) (E) (E) (A1) (E) (E) (A1)
                 (E) (E) (E) (E) (A2) (A1)
       Virtual   (E) (E) (A1) (A1) (E) (E) (A1) (E) (E) (A2) (A1)
                 (E) (E) (E) (E) (A1) (E) (E) (A1)
 Beta  Orbitals:
       Occupied  (A1) (E) (E) (A1) (A1) (E) (E) (A1) (E) (E) (A1)
                 (E) (E) (E) (E) (A2)
       Virtual   (A1) (E) (E) (A1) (A1) (E) (E) (A1) (E) (E) (A2)
                 (A1) (E) (E) (E) (E) (A1) (E) (E) (A1)
 The electronic state of the initial guess is 2-A1.
 Initial guess <Sx>= 0.0000 <Sy>= 0.0000 <Sz>= 0.5000 <S**2>= 0.7500 S= 0.5000
 Keep R1 and R2 ints in memory in symmetry-blocked form, NReq=1032465.
 Requested convergence on RMS density matrix=1.00D-08 within 128 cycles.
 Requested convergence on MAX density matrix=1.00D-06.
 Requested convergence on             energy=1.00D-06.
 No special actions if energy rises.
 SCF Done:  E(UHF) =  -321.375005307     A.U. after   12 cycles
            NFock= 12  Conv=0.20D-08     -V/T= 2.0043
 <Sx>= 0.0000 <Sy>= 0.0000 <Sz>= 0.5000 <S**2>= 0.7521 S= 0.5010
 <L.S>= 0.000000000000E+00
 Annihilation of the first spin contaminant:
 S**2 before annihilation     0.7521,   after     0.7500

 **********************************************************************

            Population analysis using the SCF Density.

 **********************************************************************

 Orbital symmetries:
 Alpha Orbitals:
       Occupied  (A1) (E) (E) (A1) (A1) (E) (E) (A1) (E) (E) (A1)
                 (E) (E) (E) (E) (A2) (A1)
       Virtual   (E) (E) (A1) (A1) (E) (E) (A1) (E) (E) (A2) (A1)
                 (E) (E) (E) (E) (A1) (E) (E) (A1)
 Beta  Orbitals:
       Occupied  (A1) (E) (E) (A1) (A1) (E) (E) (A1) (E) (E) (A1)
                 (E) (E) (E) (E) (A2)
       Virtual   (A1) (E) (E) (A1) (A1) (E) (E) (A1) (E) (E) (A2)
                 (A1) (E) (E) (E) (E) (A1) (E) (E) (A1)
 The electronic state is 2-A1.
 Alpha  occ. eigenvalues --  -25.85291 -25.85203 -25.85203  -7.44029  -1.28273
 Alpha  occ. eigenvalues --   -1.24957  -1.24957  -0.49008  -0.40143  -0.40143
 Alpha  occ. eigenvalues --   -0.39473  -0.34363  -0.34363  -0.31386  -0.31386
 Alpha  occ. eigenvalues --   -0.30823  -0.10249
 Alpha virt. eigenvalues --    0.54762   0.54762   0.64985   0.84160   0.93717
 Alpha virt. eigenvalues --    0.93717   1.07692   2.45918   2.45918   2.58139
 Alpha virt. eigenvalues --    2.60122   2.62773   2.62773   2.71384   2.71384
 Alpha virt. eigenvalues --    2.71979   3.97342   3.97342   4.47335
  Beta  occ. eigenvalues --  -25.84918 -25.84830 -25.84830  -7.41881  -1.27125
  Beta  occ. eigenvalues --   -1.23860  -1.23860  -0.46530  -0.38756  -0.38756
  Beta  occ. eigenvalues --   -0.35501  -0.32061  -0.32061  -0.31257  -0.31257
  Beta  occ. eigenvalues --   -0.30714
  Beta virt. eigenvalues --    0.37168   0.59670   0.59670   0.65769   0.93696
  Beta virt. eigenvalues --    0.96125   0.96125   1.10525   2.46747   2.46747
  Beta virt. eigenvalues --    2.58281   2.61559   2.63595   2.63595   2.71952
  Beta virt. eigenvalues --    2.71952   2.72891   3.98305   3.98305   4.47980
     Alpha Molecular Orbital Coefficients:
                           1         2         3         4         5
                        (A1)--O   (E)--O    (E)--O    (A1)--O   (A1)--O
     Eigenvalues --   -25.85291 -25.85203 -25.85203  -7.44029  -1.28273
   1 1   B  1S         -0.00115   0.00000   0.00000   0.98730  -0.05454
   2        2S         -0.00138   0.00000   0.00000   0.08512   0.06355
   3        2PX         0.00000   0.00000  -0.00187   0.00000   0.00000
   4        2PY         0.00000   0.00187   0.00000  -0.00000  -0.00000
   5        2PZ        -0.00179   0.00000   0.00000  -0.00371  -0.02690
   6        3S          0.01492  -0.00000   0.00000  -0.02271   0.05789
   7        3PX         0.00000   0.00000  -0.00703   0.00000   0.00000
   8        3PY         0.00000   0.00703   0.00000   0.00000  -0.00000
   9        3PZ        -0.00662   0.00000   0.00000  -0.00026  -0.00182
  10 2   F  1S          0.56701   0.80166   0.00000   0.00007  -0.14098
  11        2S          0.05637   0.07754   0.00000   0.00186   0.13437
  12        2PX         0.00000   0.00000  -0.00049   0.00000   0.00000
  13        2PY        -0.00150  -0.00121   0.00000  -0.00172  -0.02253
  14        2PZ         0.00015   0.00074   0.00000   0.00065   0.00986
  15        3S         -0.02127  -0.02445   0.00000  -0.00224   0.44383
  16        3PX         0.00000   0.00000   0.00178   0.00000   0.00000
  17        3PY         0.00415   0.00212   0.00000   0.00638  -0.03052
  18        3PZ         0.00000  -0.00167   0.00000  -0.00233   0.01126
  19 3   F  1S          0.56701  -0.40083   0.69426   0.00007  -0.14098
  20        2S          0.05637  -0.03877   0.06715   0.00186   0.13437
  21        2PX         0.00130  -0.00073   0.00078   0.00149   0.01951
  22        2PY         0.00075   0.00006   0.00073   0.00086   0.01127
  23        2PZ         0.00015  -0.00037   0.00064   0.00065   0.00986
  24        3S         -0.02127   0.01222  -0.02117  -0.00224   0.44383
  25        3PX        -0.00359   0.00169  -0.00115  -0.00552   0.02643
  26        3PY        -0.00207  -0.00081  -0.00169  -0.00319   0.01526
  27        3PZ         0.00000   0.00083  -0.00144  -0.00233   0.01126
  28 4   F  1S          0.56701  -0.40083  -0.69426   0.00007  -0.14098
  29        2S          0.05637  -0.03877  -0.06715   0.00186   0.13437
  30        2PX        -0.00130   0.00073   0.00078  -0.00149  -0.01951
  31        2PY         0.00075   0.00006  -0.00073   0.00086   0.01127
  32        2PZ         0.00015  -0.00037  -0.00064   0.00065   0.00986
  33        3S         -0.02127   0.01222   0.02117  -0.00224   0.44383
  34        3PX         0.00359  -0.00169  -0.00115   0.00552  -0.02643
  35        3PY        -0.00207  -0.00081   0.00169  -0.00319   0.01526
  36        3PZ         0.00000   0.00083   0.00144  -0.00233   0.01126
                           6         7         8         9        10
                        (E)--O    (E)--O    (A1)--O   (E)--O    (E)--O
     Eigenvalues --    -1.24957  -1.24957  -0.49008  -0.40143  -0.40143
   1 1   B  1S          0.00000  -0.00000   0.14232   0.00000   0.00000
   2        2S          0.00000   0.00000  -0.23341   0.00000  -0.00000
   3        2PX        -0.05640   0.00000   0.00000   0.20657   0.00000
   4        2PY         0.00000   0.05640   0.00000   0.00000  -0.20657
   5        2PZ         0.00000  -0.00000   0.01595   0.00000   0.00000
   6        3S          0.00000   0.00000  -0.24062   0.00000   0.00000
   7        3PX        -0.00998   0.00000   0.00000   0.10228   0.00000
   8        3PY         0.00000   0.00998   0.00000   0.00000  -0.10228
   9        3PZ         0.00000  -0.00000  -0.06230   0.00000   0.00000
  10 2   F  1S          0.00000  -0.20629  -0.03904   0.00000  -0.02957
  11        2S          0.00000   0.19700   0.03958   0.00000   0.02486
  12        2PX        -0.00382   0.00000   0.00000   0.22916   0.00000
  13        2PY         0.00000  -0.02074   0.21362   0.00000   0.24538
  14        2PZ         0.00000   0.01361  -0.09210   0.00000  -0.19500
  15        3S          0.00000   0.65834   0.15782   0.00000   0.14197
  16        3PX        -0.00471   0.00000   0.00000   0.26099   0.00000
  17        3PY         0.00000  -0.02936   0.25029   0.00000   0.27971
  18        3PZ         0.00000   0.01655  -0.09694   0.00000  -0.21445
  19 3   F  1S         -0.17865   0.10314  -0.03904  -0.02561   0.01478
  20        2S          0.17061  -0.09850   0.03958   0.02153  -0.01243
  21        2PX         0.01460  -0.01063  -0.18500  -0.12674   0.20548
  22        2PY         0.01063  -0.00232  -0.10681  -0.20548  -0.11053
  23        2PZ         0.01179  -0.00681  -0.09210  -0.16888   0.09750
  24        3S          0.57014  -0.32917   0.15782   0.12295  -0.07098
  25        3PX         0.02084  -0.01475  -0.21676  -0.14454   0.23413
  26        3PY         0.01475  -0.00381  -0.12515  -0.23413  -0.12581
  27        3PZ         0.01433  -0.00827  -0.09694  -0.18572   0.10722
  28 4   F  1S          0.17865   0.10314  -0.03904   0.02561   0.01478
  29        2S         -0.17061  -0.09850   0.03958  -0.02153  -0.01243
  30        2PX         0.01460   0.01063   0.18500  -0.12674  -0.20548
  31        2PY        -0.01063  -0.00232  -0.10681   0.20548  -0.11053
  32        2PZ        -0.01179  -0.00681  -0.09210   0.16888   0.09750
  33        3S         -0.57014  -0.32917   0.15782  -0.12295  -0.07098
  34        3PX         0.02084   0.01475   0.21676  -0.14454  -0.23413
  35        3PY        -0.01475  -0.00381  -0.12515   0.23413  -0.12581
  36        3PZ        -0.01433  -0.00827  -0.09694   0.18572   0.10722
                          11        12        13        14        15
                        (A1)--O   (E)--O    (E)--O    (E)--O    (E)--O
     Eigenvalues --    -0.39473  -0.34363  -0.34363  -0.31386  -0.31386
   1 1   B  1S         -0.02334  -0.00000   0.00000   0.00000   0.00000
   2        2S          0.03412   0.00000   0.00000   0.00000  -0.00000
   3        2PX         0.00000   0.00000  -0.03087  -0.09332   0.00000
   4        2PY         0.00000   0.03087   0.00000   0.00000  -0.09332
   5        2PZ         0.16246   0.00000   0.00000   0.00000   0.00000
   6        3S          0.08475   0.00000   0.00000   0.00000   0.00000
   7        3PX         0.00000   0.00000   0.03316   0.10871   0.00000
   8        3PY         0.00000  -0.03316   0.00000   0.00000   0.10871
   9        3PZ         0.19998   0.00000   0.00000   0.00000   0.00000
  10 2   F  1S         -0.00391   0.00255   0.00000   0.00000  -0.00312
  11        2S          0.00099  -0.00459   0.00000   0.00000   0.01248
  12        2PX         0.00000   0.00000   0.24719   0.25085   0.00000
  13        2PY         0.12638   0.04386   0.00000   0.00000   0.32109
  14        2PZ         0.24457   0.35124   0.00000   0.00000   0.14744
  15        3S          0.02963   0.00042   0.00000   0.00000  -0.02237
  16        3PX         0.00000   0.00000   0.29500   0.27825   0.00000
  17        3PY         0.13727   0.05100   0.00000   0.00000   0.38380
  18        3PZ         0.26842   0.41280   0.00000   0.00000   0.15753
  19 3   F  1S         -0.00391  -0.00128   0.00221   0.00270   0.00156
  20        2S          0.00099   0.00229  -0.00397  -0.01081  -0.00624
  21        2PX        -0.10944   0.12603   0.02891   0.30353   0.03041
  22        2PY        -0.06319  -0.17443  -0.12603   0.03041   0.26841
  23        2PZ         0.24457  -0.17562   0.30418  -0.12769  -0.07372
  24        3S          0.02963  -0.00021   0.00037   0.01938   0.01119
  25        3PX        -0.11888   0.14982   0.03550   0.35742   0.04571
  26        3PY        -0.06864  -0.20850  -0.14982   0.04571   0.30464
  27        3PZ         0.26842  -0.20640   0.35750  -0.13642  -0.07876
  28 4   F  1S         -0.00391  -0.00128  -0.00221  -0.00270   0.00156
  29        2S          0.00099   0.00229   0.00397   0.01081  -0.00624
  30        2PX         0.10944  -0.12603   0.02891   0.30353  -0.03041
  31        2PY        -0.06319  -0.17443   0.12603  -0.03041   0.26841
  32        2PZ         0.24457  -0.17562  -0.30418   0.12769  -0.07372
  33        3S          0.02963  -0.00021  -0.00037  -0.01938   0.01119
  34        3PX         0.11888  -0.14982   0.03550   0.35742  -0.04571
  35        3PY        -0.06864  -0.20850   0.14982  -0.04571   0.30464
  36        3PZ         0.26842  -0.20640  -0.35750   0.13642  -0.07876
                          16        17        18        19        20
                        (A2)--O   (A1)--O   (E)--V    (E)--V    (A1)--V
     Eigenvalues --    -0.30823  -0.10249   0.54762   0.54762   0.64985
   1 1   B  1S          0.00000  -0.12498   0.00000   0.00000  -0.16092
   2        2S          0.00000   0.10928   0.00000  -0.00000   0.07179
   3        2PX        -0.00000   0.00000   0.28072   0.00000   0.00000
   4        2PY         0.00000  -0.00000   0.00000   0.28072  -0.00000
   5        2PZ         0.00000   0.40303   0.00000   0.00000  -0.14219
   6        3S          0.00000   0.61703   0.00000  -0.00000   0.99347
   7        3PX         0.00000   0.00000   1.12783   0.00000   0.00000
   8        3PY         0.00000  -0.00000   0.00000   1.12783   0.00000
   9        3PZ         0.00000   0.32999   0.00000   0.00000  -0.88135
  10 2   F  1S          0.00000   0.01469   0.00000   0.06634   0.06183
  11        2S          0.00000  -0.00936   0.00000  -0.02458  -0.04642
  12        2PX         0.31305   0.00000  -0.13919   0.00000   0.00000
  13        2PY         0.00000   0.05771   0.00000   0.08657   0.16845
  14        2PZ         0.00000  -0.16724   0.00000  -0.10207   0.03050
  15        3S          0.00000  -0.09379   0.00000  -0.57152  -0.45057
  16        3PX         0.36022   0.00000  -0.23539   0.00000   0.00000
  17        3PY         0.00000   0.07758   0.00000   0.20990   0.30119
  18        3PZ         0.00000  -0.22752   0.00000  -0.17748   0.03939
  19 3   F  1S          0.00000   0.01469  -0.05745  -0.03317   0.06183
  20        2S         -0.00000  -0.00936   0.02128   0.01229  -0.04642
  21        2PX        -0.15652  -0.04998   0.03013   0.09776  -0.14588
  22        2PY         0.27111  -0.02886   0.09776  -0.08275  -0.08422
  23        2PZ        -0.00000  -0.16724   0.08840   0.05104   0.03050
  24        3S          0.00000  -0.09379   0.49495   0.28576  -0.45057
  25        3PX        -0.18011  -0.06719   0.09858   0.19282  -0.26084
  26        3PY         0.31196  -0.03879   0.19282  -0.12407  -0.15059
  27        3PZ        -0.00000  -0.22752   0.15370   0.08874   0.03939
  28 4   F  1S         -0.00000   0.01469   0.05745  -0.03317   0.06183
  29        2S          0.00000  -0.00936  -0.02128   0.01229  -0.04642
  30        2PX        -0.15652   0.04998   0.03013  -0.09776   0.14588
  31        2PY        -0.27111  -0.02886  -0.09776  -0.08275  -0.08422
  32        2PZ         0.00000  -0.16724  -0.08840   0.05104   0.03050
  33        3S         -0.00000  -0.09379  -0.49495   0.28576  -0.45057
  34        3PX        -0.18011   0.06719   0.09858  -0.19282   0.26084
  35        3PY        -0.31196  -0.03879  -0.19282  -0.12407  -0.15059
  36        3PZ         0.00000  -0.22752  -0.15370   0.08874   0.03939
                          21        22        23        24        25
                        (A1)--V   (E)--V    (E)--V    (A1)--V   (E)--V
     Eigenvalues --     0.84160   0.93717   0.93717   1.07692   2.45918
   1 1   B  1S          0.01114   0.00000  -0.00000  -0.07002   0.00000
   2        2S          0.39807   0.00000   0.00000   1.56806   0.00000
   3        2PX         0.00000   1.19658   0.00000   0.00000   0.01110
   4        2PY         0.00000   0.00000   1.19658  -0.00000   0.00000
   5        2PZ         1.08243   0.00000  -0.00000  -0.31328   0.00000
   6        3S         -0.59944   0.00000   0.00000  -1.52998   0.00000
   7        3PX         0.00000  -0.97345   0.00000   0.00000   0.09503
   8        3PY        -0.00000   0.00000  -0.97345   0.00000   0.00000
   9        3PZ        -0.90931   0.00000  -0.00000   0.39821   0.00000
  10 2   F  1S         -0.01183   0.00000   0.00270  -0.01451   0.00000
  11        2S          0.01619   0.00000  -0.02964  -0.00879   0.00000
  12        2PX         0.00000   0.01037   0.00000   0.00000   0.53551
  13        2PY        -0.05150   0.00000   0.17302   0.11915   0.00000
  14        2PZ         0.02935   0.00000  -0.06365  -0.06880   0.00000
  15        3S          0.03832   0.00000   0.18986   0.27373   0.00000
  16        3PX         0.00000   0.07128   0.00000   0.00000  -0.51144
  17        3PY        -0.06935   0.00000   0.18601   0.00409   0.00000
  18        3PZ         0.10069   0.00000  -0.04475  -0.03378   0.00000
  19 3   F  1S         -0.01183  -0.00234  -0.00135  -0.01451  -0.00584
  20        2S          0.01619   0.02567   0.01482  -0.00879   0.02704
  21        2PX         0.04460   0.13236   0.07043  -0.10319  -0.06055
  22        2PY         0.02575   0.07043   0.05104  -0.05958  -0.34413
  23        2PZ         0.02935   0.05512   0.03182  -0.06880   0.49959
  24        3S          0.03832  -0.16442  -0.09493   0.27373   0.01314
  25        3PX         0.06006   0.15733   0.04968  -0.00354   0.05975
  26        3PY         0.03468   0.04968   0.09997  -0.00204   0.32977
  27        3PZ         0.10069   0.03875   0.02237  -0.03378  -0.46319
  28 4   F  1S         -0.01183   0.00234  -0.00135  -0.01451   0.00584
  29        2S          0.01619  -0.02567   0.01482  -0.00879  -0.02704
  30        2PX        -0.04460   0.13236  -0.07043   0.10319  -0.06055
  31        2PY         0.02575  -0.07043   0.05104  -0.05958   0.34413
  32        2PZ         0.02935  -0.05512   0.03182  -0.06880  -0.49959
  33        3S          0.03832   0.16442  -0.09493   0.27373  -0.01314
  34        3PX        -0.06006   0.15733  -0.04968   0.00354   0.05975
  35        3PY         0.03468  -0.04968   0.09997  -0.00204  -0.32977
  36        3PZ         0.10069  -0.03875   0.02237  -0.03378   0.46319
                          26        27        28        29        30
                        (E)--V    (A2)--V   (A1)--V   (E)--V    (E)--V
     Eigenvalues --     2.45918   2.58139   2.60122   2.62773   2.62773
   1 1   B  1S          0.00000   0.00000  -0.00831   0.00000  -0.00000
   2        2S         -0.00000   0.00000  -0.05500   0.00000   0.00000
   3        2PX         0.00000  -0.00000   0.00000  -0.14326   0.00000
   4        2PY        -0.01110   0.00000   0.00000   0.00000  -0.14326
   5        2PZ         0.00000   0.00000  -0.01228   0.00000  -0.00000
   6        3S         -0.00000   0.00000   0.13035   0.00000   0.00000
   7        3PX         0.00000   0.00000   0.00000  -0.26957   0.00000
   8        3PY        -0.09503   0.00000   0.00000   0.00000  -0.26957
   9        3PZ        -0.00000   0.00000  -0.34411   0.00000  -0.00000
  10 2   F  1S         -0.00675   0.00000   0.01675   0.00000  -0.02907
  11        2S          0.03122   0.00000  -0.08740   0.00000   0.14609
  12        2PX         0.00000   0.58652   0.00000  -0.57985   0.00000
  13        2PY         0.25923   0.00000  -0.23008   0.00000   0.08000
  14        2PZ         0.57688   0.00000  -0.53574   0.00000  -0.57567
  15        3S          0.01517   0.00000  -0.01577   0.00000   0.02259
  16        3PX         0.00000  -0.57237   0.00000   0.61135   0.00000
  17        3PY        -0.25014   0.00000   0.26148   0.00000  -0.12401
  18        3PZ        -0.53485   0.00000   0.55550   0.00000   0.60749
  19 3   F  1S          0.00337  -0.00000   0.01675   0.02518   0.01454
  20        2S         -0.01561   0.00000  -0.08740  -0.12652  -0.07305
  21        2PX         0.34413  -0.29326   0.19925  -0.08496   0.28573
  22        2PY        -0.33683   0.50794   0.11504   0.28573  -0.41489
  23        2PZ        -0.28844  -0.00000  -0.53574   0.49855   0.28784
  24        3S         -0.00759   0.00000  -0.01577  -0.01957  -0.01130
  25        3PX        -0.32977   0.28619  -0.22645   0.05983  -0.31842
  26        3PY         0.32104  -0.49569  -0.13074  -0.31842   0.42751
  27        3PZ         0.26742   0.00000   0.55550  -0.52610  -0.30374
  28 4   F  1S          0.00337   0.00000   0.01675  -0.02518   0.01454
  29        2S         -0.01561  -0.00000  -0.08740   0.12652  -0.07305
  30        2PX        -0.34413  -0.29326  -0.19925  -0.08496  -0.28573
  31        2PY        -0.33683  -0.50794   0.11504  -0.28573  -0.41489
  32        2PZ        -0.28844   0.00000  -0.53574  -0.49855   0.28784
  33        3S         -0.00759  -0.00000  -0.01577   0.01957  -0.01130
  34        3PX         0.32977   0.28619   0.22645   0.05983   0.31842
  35        3PY         0.32104   0.49569  -0.13074   0.31842   0.42751
  36        3PZ         0.26742  -0.00000   0.55550   0.52610  -0.30374
                          31        32        33        34        35
                        (E)--V    (E)--V    (A1)--V   (E)--V    (E)--V
     Eigenvalues --     2.71384   2.71384   2.71979   3.97342   3.97342
   1 1   B  1S          0.00000   0.00000  -0.02646   0.00000  -0.00000
   2        2S         -0.00000   0.00000   0.50424   0.00000   0.00000
   3        2PX         0.00000   0.36240   0.00000   0.17185   0.00000
   4        2PY         0.36240   0.00000   0.00000   0.00000  -0.17185
   5        2PZ         0.00000   0.00000  -0.23371   0.00000  -0.00000
   6        3S         -0.00000   0.00000   0.01939   0.00000   0.00000
   7        3PX         0.00000  -0.20242   0.00000   0.43038   0.00000
   8        3PY        -0.20242   0.00000  -0.00000   0.00000  -0.43038
   9        3PZ        -0.00000   0.00000   0.04088   0.00000  -0.00000
  10 2   F  1S          0.01155   0.00000   0.02523   0.00000   0.09761
  11        2S         -0.07353   0.00000  -0.14054   0.00000  -1.24504
  12        2PX         0.00000  -0.24595   0.00000   0.09844   0.00000
  13        2PY        -0.78622   0.00000  -0.52235   0.00000   0.09234
  14        2PZ         0.12752   0.00000   0.23891   0.00000  -0.08690
  15        3S          0.06602   0.00000   0.04630   0.00000   1.27470
  16        3PX         0.00000   0.25930   0.00000  -0.18251   0.00000
  17        3PY         0.84366   0.00000   0.60088   0.00000  -0.18249
  18        3PZ        -0.14576   0.00000  -0.26924   0.00000   0.16321
  19 3   F  1S         -0.00577  -0.01000   0.02523   0.08453  -0.04880
  20        2S          0.03676   0.06367  -0.14054  -1.07824   0.62252
  21        2PX        -0.23394  -0.65115   0.45237  -0.04464   0.08261
  22        2PY        -0.38102  -0.23394   0.26117  -0.08261  -0.05075
  23        2PZ        -0.06376  -0.11043   0.23891  -0.07526   0.04345
  24        3S         -0.03301  -0.05717   0.04630   1.10392  -0.63735
  25        3PX         0.25304   0.69757  -0.52038   0.09124  -0.15805
  26        3PY         0.40539   0.25304  -0.30044   0.15805   0.09126
  27        3PZ         0.07288   0.12624  -0.26924   0.14134  -0.08160
  28 4   F  1S         -0.00577   0.01000   0.02523  -0.08453  -0.04880
  29        2S          0.03676  -0.06367  -0.14054   1.07824   0.62252
  30        2PX         0.23394  -0.65115  -0.45237  -0.04464  -0.08261
  31        2PY        -0.38102   0.23394   0.26117   0.08261  -0.05075
  32        2PZ        -0.06376   0.11043   0.23891   0.07526   0.04345
  33        3S         -0.03301   0.05717   0.04630  -1.10392  -0.63735
  34        3PX        -0.25304   0.69757   0.52038   0.09124   0.15805
  35        3PY         0.40539  -0.25304  -0.30044  -0.15805   0.09126
  36        3PZ         0.07288  -0.12624  -0.26924  -0.14134  -0.08160
                          36
                        (A1)--V
     Eigenvalues --     4.47335
   1 1   B  1S          0.08407
   2        2S          0.01142
   3        2PX         0.00000
   4        2PY        -0.00000
   5        2PZ         0.15731
   6        3S         -0.90459
   7        3PX         0.00000
   8        3PY        -0.00000
   9        3PZ         0.41982
  10 2   F  1S          0.05398
  11        2S         -0.92235
  12        2PX         0.00000
  13        2PY         0.15943
  14        2PZ         0.01855
  15        3S          1.10694
  16        3PX         0.00000
  17        3PY        -0.35634
  18        3PZ        -0.01944
  19 3   F  1S          0.05398
  20        2S         -0.92235
  21        2PX        -0.13807
  22        2PY        -0.07971
  23        2PZ         0.01855
  24        3S          1.10694
  25        3PX         0.30860
  26        3PY         0.17817
  27        3PZ        -0.01944
  28 4   F  1S          0.05398
  29        2S         -0.92235
  30        2PX         0.13807
  31        2PY        -0.07971
  32        2PZ         0.01855
  33        3S          1.10694
  34        3PX        -0.30860
  35        3PY         0.17817
  36        3PZ        -0.01944
     Beta Molecular Orbital Coefficients:
                           1         2         3         4         5
                        (A1)--O   (E)--O    (E)--O    (A1)--O   (A1)--O
     Eigenvalues --   -25.84918 -25.84830 -25.84830  -7.41881  -1.27125
   1 1   B  1S         -0.00116   0.00000   0.00000   0.98758  -0.05285
   2        2S         -0.00137   0.00000   0.00000   0.08421   0.05849
   3        2PX         0.00000   0.00000  -0.00187   0.00000   0.00000
   4        2PY         0.00000   0.00187   0.00000  -0.00000  -0.00000
   5        2PZ        -0.00177   0.00000   0.00000  -0.00441  -0.03222
   6        3S          0.01495  -0.00000   0.00000  -0.02317   0.05737
   7        3PX         0.00000   0.00000  -0.00704   0.00000   0.00000
   8        3PY         0.00000   0.00704   0.00000  -0.00000  -0.00000
   9        3PZ        -0.00662   0.00000   0.00000  -0.00057  -0.00453
  10 2   F  1S          0.56704   0.80169   0.00000   0.00007  -0.14098
  11        2S          0.05629   0.07743   0.00000   0.00177   0.13326
  12        2PX         0.00000   0.00000  -0.00049   0.00000   0.00000
  13        2PY        -0.00149  -0.00121   0.00000  -0.00166  -0.02143
  14        2PZ         0.00014   0.00073   0.00000   0.00056   0.00485
  15        3S         -0.02127  -0.02445   0.00000  -0.00209   0.44529
  16        3PX         0.00000   0.00000   0.00178   0.00000   0.00000
  17        3PY         0.00415   0.00212   0.00000   0.00631  -0.02971
  18        3PZ         0.00000  -0.00166   0.00000  -0.00215   0.00924
  19 3   F  1S          0.56704  -0.40085   0.69429   0.00007  -0.14098
  20        2S          0.05629  -0.03872   0.06706   0.00177   0.13326
  21        2PX         0.00129  -0.00073   0.00078   0.00144   0.01856
  22        2PY         0.00075   0.00007   0.00073   0.00083   0.01071
  23        2PZ         0.00014  -0.00036   0.00063   0.00056   0.00485
  24        3S         -0.02127   0.01223  -0.02117  -0.00209   0.44529
  25        3PX        -0.00359   0.00169  -0.00115  -0.00546   0.02573
  26        3PY        -0.00207  -0.00081  -0.00169  -0.00315   0.01486
  27        3PZ         0.00000   0.00083  -0.00144  -0.00215   0.00924
  28 4   F  1S          0.56704  -0.40085  -0.69429   0.00007  -0.14098
  29        2S          0.05629  -0.03872  -0.06706   0.00177   0.13326
  30        2PX        -0.00129   0.00073   0.00078  -0.00144  -0.01856
  31        2PY         0.00075   0.00007  -0.00073   0.00083   0.01071
  32        2PZ         0.00014  -0.00036  -0.00063   0.00056   0.00485
  33        3S         -0.02127   0.01223   0.02117  -0.00209   0.44529
  34        3PX         0.00359  -0.00169  -0.00115   0.00546  -0.02573
  35        3PY        -0.00207  -0.00081   0.00169  -0.00315   0.01486
  36        3PZ         0.00000   0.00083   0.00144  -0.00215   0.00924
                           6         7         8         9        10
                        (E)--O    (E)--O    (A1)--O   (E)--O    (E)--O
     Eigenvalues --    -1.23860  -1.23860  -0.46530  -0.38756  -0.38756
   1 1   B  1S          0.00000  -0.00000   0.11868   0.00000   0.00000
   2        2S          0.00000   0.00000  -0.19473   0.00000  -0.00000
   3        2PX        -0.05510   0.00000   0.00000   0.18732   0.00000
   4        2PY         0.00000   0.05510   0.00000   0.00000  -0.18732
   5        2PZ         0.00000  -0.00000   0.10695   0.00000   0.00000
   6        3S          0.00000   0.00000  -0.16362   0.00000  -0.00000
   7        3PX        -0.01164   0.00000   0.00000   0.10210   0.00000
   8        3PY         0.00000   0.01164   0.00000   0.00000  -0.10210
   9        3PZ         0.00000  -0.00000   0.01311   0.00000   0.00000
  10 2   F  1S          0.00000  -0.20608  -0.03662   0.00000  -0.02699
  11        2S          0.00000   0.19520   0.03778   0.00000   0.02368
  12        2PX        -0.00391   0.00000   0.00000   0.27893   0.00000
  13        2PY         0.00000  -0.01923   0.24306   0.00000   0.24864
  14        2PZ         0.00000   0.00692  -0.03436   0.00000  -0.10984
  15        3S          0.00000   0.65980   0.14845   0.00000   0.13050
  16        3PX        -0.00460   0.00000   0.00000   0.32254   0.00000
  17        3PY         0.00000  -0.02875   0.28469   0.00000   0.28796
  18        3PZ         0.00000   0.01316  -0.04117   0.00000  -0.12122
  19 3   F  1S         -0.17847   0.10304  -0.03662  -0.02337   0.01349
  20        2S          0.16905  -0.09760   0.03778   0.02051  -0.01184
  21        2PX         0.01345  -0.01002  -0.21050  -0.11675   0.22844
  22        2PY         0.01002  -0.00188  -0.12153  -0.22844  -0.14704
  23        2PZ         0.00599  -0.00346  -0.03436  -0.09512   0.05492
  24        3S          0.57141  -0.32990   0.14845   0.11302  -0.06525
  25        3PX         0.02041  -0.01444  -0.24655  -0.13534   0.26436
  26        3PY         0.01444  -0.00373  -0.14234  -0.26436  -0.16992
  27        3PZ         0.01140  -0.00658  -0.04117  -0.10498   0.06061
  28 4   F  1S          0.17847   0.10304  -0.03662   0.02337   0.01349
  29        2S         -0.16905  -0.09760   0.03778  -0.02051  -0.01184
  30        2PX         0.01345   0.01002   0.21050  -0.11675  -0.22844
  31        2PY        -0.01002  -0.00188  -0.12153   0.22844  -0.14704
  32        2PZ        -0.00599  -0.00346  -0.03436   0.09512   0.05492
  33        3S         -0.57141  -0.32990   0.14845  -0.11302  -0.06525
  34        3PX         0.02041   0.01444   0.24655  -0.13534  -0.26436
  35        3PY        -0.01444  -0.00373  -0.14234   0.26436  -0.16992
  36        3PZ        -0.01140  -0.00658  -0.04117   0.10498   0.06061
                          11        12        13        14        15
                        (A1)--O   (E)--O    (E)--O    (E)--O    (E)--O
     Eigenvalues --    -0.35501  -0.32061  -0.32061  -0.31257  -0.31257
   1 1   B  1S         -0.03933   0.00000  -0.00000   0.00000  -0.00000
   2        2S          0.06285   0.00000   0.00000   0.00000   0.00000
   3        2PX         0.00000  -0.09601   0.00000  -0.07854   0.00000
   4        2PY         0.00000   0.00000   0.09601   0.00000  -0.07854
   5        2PZ         0.05617   0.00000   0.00000   0.00000   0.00000
   6        3S          0.06196   0.00000   0.00000   0.00000   0.00000
   7        3PX         0.00000   0.00794   0.00000   0.10980   0.00000
   8        3PY        -0.00000   0.00000  -0.00794   0.00000   0.10980
   9        3PZ         0.16298   0.00000   0.00000   0.00000   0.00000
  10 2   F  1S          0.00299   0.00000   0.00881   0.00000  -0.00207
  11        2S         -0.00908   0.00000  -0.01256   0.00000   0.01062
  12        2PX         0.00000   0.22085   0.00000   0.22465   0.00000
  13        2PY         0.06010   0.00000  -0.04772   0.00000   0.31811
  14        2PZ         0.27871   0.00000   0.35678   0.00000   0.19170
  15        3S          0.00665   0.00000  -0.02867   0.00000  -0.02607
  16        3PX         0.00000   0.26592   0.00000   0.24689   0.00000
  17        3PY         0.05689   0.00000  -0.05809   0.00000   0.38086
  18        3PZ         0.32181   0.00000   0.43016   0.00000   0.21219
  19 3   F  1S          0.00299   0.00763  -0.00440   0.00179   0.00104
  20        2S         -0.00908  -0.01088   0.00628  -0.00920  -0.00531
  21        2PX        -0.05205   0.09100   0.07497   0.29475   0.04047
  22        2PY        -0.03005  -0.07497  -0.17757   0.04047   0.24802
  23        2PZ         0.27871   0.30898  -0.17839  -0.16602  -0.09585
  24        3S          0.00665  -0.02483   0.01433   0.02257   0.01303
  25        3PX        -0.04926   0.11005   0.08999   0.34737   0.05801
  26        3PY        -0.02844  -0.08999  -0.21396   0.05801   0.28039
  27        3PZ         0.32181   0.37253  -0.21508  -0.18376  -0.10610
  28 4   F  1S          0.00299  -0.00763  -0.00440  -0.00179   0.00104
  29        2S         -0.00908   0.01088   0.00628   0.00920  -0.00531
  30        2PX         0.05205   0.09100  -0.07497   0.29475  -0.04047
  31        2PY        -0.03005   0.07497  -0.17757  -0.04047   0.24802
  32        2PZ         0.27871  -0.30898  -0.17839   0.16602  -0.09585
  33        3S          0.00665   0.02483   0.01433  -0.02257   0.01303
  34        3PX         0.04926   0.11005  -0.08999   0.34737  -0.05801
  35        3PY        -0.02844   0.08999  -0.21396  -0.05801   0.28039
  36        3PZ         0.32181  -0.37253  -0.21508   0.18376  -0.10610
                          16        17        18        19        20
                        (A2)--O   (A1)--V   (E)--V    (E)--V    (A1)--V
     Eigenvalues --    -0.30714   0.37168   0.59670   0.59670   0.65769
   1 1   B  1S          0.00000  -0.13664   0.00000   0.00000  -0.16113
   2        2S          0.00000  -0.00026   0.00000  -0.00000   0.03792
   3        2PX        -0.00000   0.00000   0.21819   0.00000   0.00000
   4        2PY         0.00000  -0.00000   0.00000   0.21819  -0.00000
   5        2PZ         0.00000   0.23667   0.00000   0.00000  -0.16603
   6        3S          0.00000   0.79098   0.00000  -0.00000   1.03972
   7        3PX         0.00000   0.00000   1.17552   0.00000   0.00000
   8        3PY         0.00000  -0.00000   0.00000   1.17552   0.00000
   9        3PZ         0.00000   0.50857   0.00000   0.00000  -0.85696
  10 2   F  1S          0.00000   0.01988   0.00000   0.06686   0.06276
  11        2S          0.00000  -0.01765   0.00000  -0.02601  -0.04661
  12        2PX         0.31266   0.00000  -0.13848   0.00000   0.00000
  13        2PY         0.00000   0.04730   0.00000   0.07617   0.16790
  14        2PZ         0.00000  -0.12260   0.00000  -0.10183   0.02834
  15        3S          0.00000  -0.11329   0.00000  -0.57989  -0.45805
  16        3PX         0.36059   0.00000  -0.22998   0.00000   0.00000
  17        3PY         0.00000   0.06852   0.00000   0.19605   0.30316
  18        3PZ         0.00000  -0.18682   0.00000  -0.18607   0.02976
  19 3   F  1S          0.00000   0.01988  -0.05790  -0.03343   0.06276
  20        2S         -0.00000  -0.01765   0.02252   0.01300  -0.04661
  21        2PX        -0.15633  -0.04096   0.02251   0.09294  -0.14540
  22        2PY         0.27077  -0.02365   0.09294  -0.08481  -0.08395
  23        2PZ        -0.00000  -0.12260   0.08819   0.05092   0.02834
  24        3S          0.00000  -0.11329   0.50220   0.28995  -0.45805
  25        3PX        -0.18030  -0.05934   0.08954   0.18448  -0.26254
  26        3PY         0.31228  -0.03426   0.18448  -0.12348  -0.15158
  27        3PZ        -0.00000  -0.18682   0.16114   0.09303   0.02976
  28 4   F  1S         -0.00000   0.01988   0.05790  -0.03343   0.06276
  29        2S          0.00000  -0.01765  -0.02252   0.01300  -0.04661
  30        2PX        -0.15633   0.04096   0.02251  -0.09294   0.14540
  31        2PY        -0.27077  -0.02365  -0.09294  -0.08481  -0.08395
  32        2PZ         0.00000  -0.12260  -0.08819   0.05092   0.02834
  33        3S         -0.00000  -0.11329  -0.50220   0.28995  -0.45805
  34        3PX        -0.18030   0.05934   0.08954  -0.18448   0.26254
  35        3PY        -0.31228  -0.03426  -0.18448  -0.12348  -0.15158
  36        3PZ         0.00000  -0.18682  -0.16114   0.09303   0.02976
                          21        22        23        24        25
                        (A1)--V   (E)--V    (E)--V    (A1)--V   (E)--V
     Eigenvalues --     0.93696   0.96125   0.96125   1.10525   2.46747
   1 1   B  1S         -0.00217   0.00000  -0.00000  -0.08114   0.00000
   2        2S          0.05251   0.00000   0.00000   1.62561   0.00000
   3        2PX         0.00000   1.20960   0.00000   0.00000   0.02720
   4        2PY         0.00000   0.00000   1.20960  -0.00000   0.00000
   5        2PZ         1.17556   0.00000  -0.00000  -0.03975   0.00000
   6        3S         -0.09836   0.00000   0.00000  -1.54422   0.00000
   7        3PX         0.00000  -0.91400   0.00000   0.00000   0.10402
   8        3PY        -0.00000   0.00000  -0.91400   0.00000   0.00000
   9        3PZ        -0.92357   0.00000   0.00000   0.20401   0.00000
  10 2   F  1S         -0.00356   0.00000   0.00631  -0.01390   0.00000
  11        2S          0.01284   0.00000  -0.03186  -0.00731   0.00000
  12        2PX         0.00000   0.00306   0.00000   0.00000   0.54921
  13        2PY        -0.06520   0.00000   0.17728   0.11183   0.00000
  14        2PZ         0.02965   0.00000  -0.06845  -0.06731   0.00000
  15        3S         -0.05179   0.00000   0.16054   0.25693   0.00000
  16        3PX         0.00000   0.06248   0.00000   0.00000  -0.52695
  17        3PY        -0.05444   0.00000   0.19299  -0.00210   0.00000
  18        3PZ         0.08832   0.00000  -0.05871  -0.02353   0.00000
  19 3   F  1S         -0.00356  -0.00546  -0.00315  -0.01390  -0.00722
  20        2S          0.01284   0.02759   0.01593  -0.00731   0.03051
  21        2PX         0.05647   0.13372   0.07544  -0.09685  -0.06750
  22        2PY         0.03260   0.07544   0.04661  -0.05591  -0.35606
  23        2PZ         0.02965   0.05928   0.03422  -0.06731   0.48433
  24        3S         -0.05179  -0.13903  -0.08027   0.25693   0.01790
  25        3PX         0.04714   0.16036   0.05651   0.00182   0.07076
  26        3PY         0.02722   0.05651   0.09511   0.00105   0.34509
  27        3PZ         0.08832   0.05084   0.02935  -0.02353  -0.44085
  28 4   F  1S         -0.00356   0.00546  -0.00315  -0.01390   0.00722
  29        2S          0.01284  -0.02759   0.01593  -0.00731  -0.03051
  30        2PX        -0.05647   0.13372  -0.07544   0.09685  -0.06750
  31        2PY         0.03260  -0.07544   0.04661  -0.05591   0.35606
  32        2PZ         0.02965  -0.05928   0.03422  -0.06731  -0.48433
  33        3S         -0.05179   0.13903  -0.08027   0.25693  -0.01790
  34        3PX        -0.04714   0.16036  -0.05651  -0.00182   0.07076
  35        3PY         0.02722  -0.05651   0.09511   0.00105  -0.34509
  36        3PZ         0.08832  -0.05084   0.02935  -0.02353   0.44085
                          26        27        28        29        30
                        (E)--V    (A2)--V   (A1)--V   (E)--V    (E)--V
     Eigenvalues --     2.46747   2.58281   2.61559   2.63595   2.63595
   1 1   B  1S         -0.00000   0.00000  -0.01020   0.00000  -0.00000
   2        2S         -0.00000   0.00000  -0.01340   0.00000   0.00000
   3        2PX         0.00000  -0.00000   0.00000  -0.11979   0.00000
   4        2PY        -0.02720   0.00000   0.00000   0.00000  -0.11979
   5        2PZ         0.00000   0.00000  -0.03660   0.00000  -0.00000
   6        3S          0.00000   0.00000   0.13127   0.00000   0.00000
   7        3PX         0.00000  -0.00000   0.00000  -0.27720   0.00000
   8        3PY        -0.10402   0.00000   0.00000   0.00000  -0.27720
   9        3PZ        -0.00000   0.00000  -0.34316   0.00000  -0.00000
  10 2   F  1S         -0.00834   0.00000   0.01883   0.00000  -0.02827
  11        2S          0.03524   0.00000  -0.09546   0.00000   0.14503
  12        2PX         0.00000   0.58673   0.00000  -0.57696   0.00000
  13        2PY         0.27307   0.00000  -0.27008   0.00000   0.02478
  14        2PZ         0.55925   0.00000  -0.51721   0.00000  -0.58593
  15        3S          0.02067   0.00000  -0.01682   0.00000   0.02055
  16        3PX         0.00000  -0.57214   0.00000   0.60929   0.00000
  17        3PY        -0.27000   0.00000   0.31041   0.00000  -0.06356
  18        3PZ        -0.50905   0.00000   0.53053   0.00000   0.61033
  19 3   F  1S          0.00417   0.00000   0.01883   0.02448   0.01413
  20        2S         -0.01762  -0.00000  -0.09546  -0.12560  -0.07251
  21        2PX         0.35606  -0.29336   0.23390  -0.12565   0.26056
  22        2PY        -0.34364   0.50812   0.13504   0.26056  -0.42652
  23        2PZ        -0.27963   0.00000  -0.51721   0.50743   0.29297
  24        3S         -0.01034  -0.00000  -0.01682  -0.01780  -0.01028
  25        3PX        -0.34509   0.28607  -0.26883   0.10465  -0.29135
  26        3PY         0.32771  -0.49548  -0.15521  -0.29135   0.44108
  27        3PZ         0.25453  -0.00000   0.53053  -0.52856  -0.30516
  28 4   F  1S          0.00417  -0.00000   0.01883  -0.02448   0.01413
  29        2S         -0.01762   0.00000  -0.09546   0.12560  -0.07251
  30        2PX        -0.35606  -0.29336  -0.23390  -0.12565  -0.26056
  31        2PY        -0.34364  -0.50812   0.13504  -0.26056  -0.42652
  32        2PZ        -0.27963  -0.00000  -0.51721  -0.50743   0.29297
  33        3S         -0.01034   0.00000  -0.01682   0.01780  -0.01028
  34        3PX         0.34509   0.28607   0.26883   0.10465   0.29135
  35        3PY         0.32771   0.49548  -0.15521   0.29135   0.44108
  36        3PZ         0.25453   0.00000   0.53053   0.52856  -0.30516
                          31        32        33        34        35
                        (E)--V    (E)--V    (A1)--V   (E)--V    (E)--V
     Eigenvalues --     2.71952   2.71952   2.72891   3.98305   3.98305
   1 1   B  1S          0.00000   0.00000  -0.02599   0.00000  -0.00000
   2        2S          0.00000  -0.00000   0.50918   0.00000  -0.00000
   3        2PX         0.37092   0.00000   0.00000   0.17523   0.00000
   4        2PY         0.00000   0.37092   0.00000   0.00000  -0.17523
   5        2PZ         0.00000   0.00000  -0.22623   0.00000  -0.00000
   6        3S          0.00000  -0.00000   0.00615   0.00000   0.00000
   7        3PX        -0.19023   0.00000   0.00000   0.43269   0.00000
   8        3PY         0.00000  -0.19023  -0.00000   0.00000  -0.43269
   9        3PZ         0.00000  -0.00000   0.06781   0.00000  -0.00000
  10 2   F  1S          0.00000   0.01324   0.02377   0.00000   0.09757
  11        2S          0.00000  -0.08486  -0.13507   0.00000  -1.24453
  12        2PX        -0.22063   0.00000   0.00000   0.09894   0.00000
  13        2PY         0.00000  -0.78513  -0.50304   0.00000   0.09412
  14        2PZ         0.00000   0.17350   0.28187   0.00000  -0.09165
  15        3S          0.00000   0.06920   0.05052   0.00000   1.27482
  16        3PX         0.23191   0.00000   0.00000  -0.18363   0.00000
  17        3PY         0.00000   0.84366   0.57650   0.00000  -0.18473
  18        3PZ         0.00000  -0.18913  -0.31043   0.00000   0.16603
  19 3   F  1S         -0.01146  -0.00662   0.02377   0.08450  -0.04878
  20        2S          0.07350   0.04243  -0.13507  -1.07779   0.62226
  21        2PX        -0.64401  -0.24443   0.43565  -0.04586   0.08360
  22        2PY        -0.24443  -0.36176   0.25152  -0.08360  -0.05067
  23        2PZ        -0.15025  -0.08675   0.28187  -0.07937   0.04582
  24        3S         -0.05993  -0.03460   0.05052   1.10403  -0.63741
  25        3PX         0.69072   0.26489  -0.49926   0.09264  -0.15950
  26        3PY         0.26489   0.38485  -0.28825   0.15950   0.09154
  27        3PZ         0.16379   0.09457  -0.31043   0.14378  -0.08301
  28 4   F  1S          0.01146  -0.00662   0.02377  -0.08450  -0.04878
  29        2S         -0.07350   0.04243  -0.13507   1.07779   0.62226
  30        2PX        -0.64401   0.24443  -0.43565  -0.04586  -0.08360
  31        2PY         0.24443  -0.36176   0.25152   0.08360  -0.05067
  32        2PZ         0.15025  -0.08675   0.28187   0.07937   0.04582
  33        3S          0.05993  -0.03460   0.05052  -1.10403  -0.63741
  34        3PX         0.69072  -0.26489   0.49926   0.09264   0.15950
  35        3PY        -0.26489   0.38485  -0.28825  -0.15950   0.09154
  36        3PZ        -0.16379   0.09457  -0.31043  -0.14378  -0.08301
                          36
                        (A1)--V
     Eigenvalues --     4.47980
   1 1   B  1S          0.08462
   2        2S          0.00904
   3        2PX         0.00000
   4        2PY        -0.00000
   5        2PZ         0.15515
   6        3S         -0.90544
   7        3PX         0.00000
   8        3PY        -0.00000
   9        3PZ         0.41781
  10 2   F  1S          0.05409
  11        2S         -0.92250
  12        2PX         0.00000
  13        2PY         0.15979
  14        2PZ         0.01576
  15        3S          1.10641
  16        3PX         0.00000
  17        3PY        -0.35631
  18        3PZ        -0.01748
  19 3   F  1S          0.05409
  20        2S         -0.92250
  21        2PX        -0.13838
  22        2PY        -0.07990
  23        2PZ         0.01576
  24        3S          1.10641
  25        3PX         0.30857
  26        3PY         0.17815
  27        3PZ        -0.01748
  28 4   F  1S          0.05409
  29        2S         -0.92250
  30        2PX         0.13838
  31        2PY        -0.07990
  32        2PZ         0.01576
  33        3S          1.10641
  34        3PX        -0.30857
  35        3PY         0.17815
  36        3PZ        -0.01748
     Alpha Density Matrix:
                           1         2         3         4         5
   1 1   B  1S          1.01415
   2        2S          0.03290   0.07887
   3        2PX         0.00000  -0.00000   0.05552
   4        2PY        -0.00000   0.00000   0.00000   0.05552
   5        2PZ        -0.05408   0.04384   0.00000  -0.00000   0.18982
   6        3S         -0.13894   0.12821   0.00000   0.00000   0.25711
   7        3PX        -0.00000   0.00000   0.01054  -0.00000   0.00000
   8        3PY         0.00000  -0.00000   0.00000   0.01054  -0.00000
   9        3PZ        -0.05492   0.05730   0.00000   0.00000   0.16455
  10 2   F  1S         -0.00019   0.00085  -0.00000  -0.00366   0.00744
  11        2S          0.00122  -0.00161   0.00000   0.00482  -0.00670
  12        2PX         0.00000  -0.00000   0.01651  -0.00000   0.00000
  13        2PY         0.01977  -0.04082  -0.00000  -0.08047   0.04781
  14        2PZ         0.00219   0.01225   0.00000   0.03813  -0.02941
  15        3S          0.00709  -0.01803   0.00000   0.00986  -0.04236
  16        3PX         0.00000  -0.00000   0.01910  -0.00000   0.00000
  17        3PY         0.03068  -0.04666  -0.00000  -0.09368   0.05835
  18        3PZ         0.00545   0.00744   0.00000   0.04327  -0.04993
  19 3   F  1S         -0.00019   0.00085   0.00317   0.00183   0.00744
  20        2S          0.00122  -0.00161  -0.00417  -0.00241  -0.00670
  21        2PX        -0.01712   0.03535  -0.05623  -0.04200  -0.04141
  22        2PY        -0.00989   0.02041  -0.04200  -0.00773  -0.02391
  23        2PZ         0.00219   0.01225  -0.03303  -0.01907  -0.02941
  24        3S          0.00709  -0.01803  -0.00854  -0.00493  -0.04236
  25        3PX        -0.02657   0.04041  -0.06548  -0.04883  -0.05054
  26        3PY        -0.01534   0.02333  -0.04883  -0.00909  -0.02918
  27        3PZ         0.00545   0.00744  -0.03747  -0.02164  -0.04993
  28 4   F  1S         -0.00019   0.00085  -0.00317   0.00183   0.00744
  29        2S          0.00122  -0.00161   0.00417  -0.00241  -0.00670
  30        2PX         0.01712  -0.03535  -0.05623   0.04200   0.04141
  31        2PY        -0.00989   0.02041   0.04200  -0.00773  -0.02391
  32        2PZ         0.00219   0.01225   0.03303  -0.01907  -0.02941
  33        3S          0.00709  -0.01803   0.00854  -0.00493  -0.04236
  34        3PX         0.02657  -0.04041  -0.06548   0.04883   0.05054
  35        3PY        -0.01534   0.02333   0.04883  -0.00909  -0.02918
  36        3PZ         0.00545   0.00744   0.03747  -0.02164  -0.04993
                           6         7         8         9        10
   6        3S          0.44989
   7        3PX         0.00000   0.02353
   8        3PY        -0.00000   0.00000   0.02353
   9        3PZ         0.23536   0.00000  -0.00000   0.15282
  10 2   F  1S          0.01842   0.00000   0.00618   0.00300   1.02924
  11        2S         -0.00664   0.00000   0.00148  -0.00598   0.03207
  12        2PX        -0.00000   0.05895  -0.00000   0.00000  -0.00000
  13        2PY        -0.00637  -0.00000   0.00814   0.03106  -0.01050
  14        2PZ        -0.05975   0.00000   0.02447  -0.00056   0.00287
  15        3S         -0.06791  -0.00000  -0.01057  -0.03553  -0.24182
  16        3PX        -0.00000   0.06676  -0.00000   0.00000  -0.00000
  17        3PY        -0.00257  -0.00000   0.01114   0.03749  -0.00410
  18        3PZ        -0.09360   0.00000   0.02552  -0.01538  -0.00004
  19 3   F  1S          0.01842  -0.00535  -0.00309   0.00300   0.00008
  20        2S         -0.00664  -0.00128  -0.00074  -0.00598   0.00096
  21        2PX         0.00552   0.02084  -0.02200  -0.02690   0.00066
  22        2PY         0.00318  -0.02200   0.04624  -0.01553   0.00535
  23        2PZ        -0.05975  -0.02119  -0.01223  -0.00056  -0.00311
  24        3S         -0.06791   0.00915   0.00528  -0.03553  -0.00252
  25        3PX         0.00223   0.02505  -0.02408  -0.03247  -0.00011
  26        3PY         0.00129  -0.02408   0.05286  -0.01874   0.00364
  27        3PZ        -0.09360  -0.02210  -0.01276  -0.01538  -0.00327
  28 4   F  1S          0.01842   0.00535  -0.00309   0.00300   0.00008
  29        2S         -0.00664   0.00128  -0.00074  -0.00598   0.00096
  30        2PX        -0.00552   0.02084   0.02200   0.02690  -0.00066
  31        2PY         0.00318   0.02200   0.04624  -0.01553   0.00535
  32        2PZ        -0.05975   0.02119  -0.01223  -0.00056  -0.00311
  33        3S         -0.06791  -0.00915   0.00528  -0.03553  -0.00252
  34        3PX        -0.00223   0.02505   0.02408   0.03247   0.00011
  35        3PY         0.00129   0.02408   0.05286  -0.01874   0.00364
  36        3PZ        -0.09360   0.02210  -0.01276  -0.01538  -0.00327
                          11        12        13        14        15
  11        2S          0.06851
  12        2PX         0.00000   0.27456
  13        2PY         0.01065  -0.00000   0.23111
  14        2PZ        -0.00238   0.00000   0.01597   0.27968
  15        3S          0.19663   0.00000   0.03613  -0.00912   0.68669
  16        3PX         0.00000   0.31531  -0.00000   0.00000   0.00000
  17        3PY         0.01135  -0.00000   0.27068   0.01681   0.03441
  18        3PZ        -0.00206   0.00000   0.01556   0.32299  -0.00386
  19 3   F  1S          0.00096  -0.00430  -0.00324  -0.00311  -0.00252
  20        2S          0.00008   0.00056   0.00206   0.00044   0.00007
  21        2PX        -0.00151   0.00519   0.00926   0.00736   0.00244
  22        2PY        -0.00151   0.01422   0.01874  -0.00085  -0.03434
  23        2PZ         0.00044   0.00441  -0.00595   0.00471   0.02371
  24        3S          0.00007   0.03096   0.01506   0.02371   0.00469
  25        3PX        -0.00180   0.00885   0.01321   0.01589   0.00292
  26        3PY        -0.00191   0.01838   0.01990  -0.00246  -0.03858
  27        3PZ         0.00113   0.01153  -0.00803   0.00761   0.03042
  28 4   F  1S          0.00096   0.00430  -0.00324  -0.00311  -0.00252
  29        2S          0.00008  -0.00056   0.00206   0.00044   0.00007
  30        2PX         0.00151   0.00519  -0.00926  -0.00736  -0.00244
  31        2PY        -0.00151  -0.01422   0.01874  -0.00085  -0.03434
  32        2PZ         0.00044  -0.00441  -0.00595   0.00471   0.02371
  33        3S          0.00007  -0.03096   0.01506   0.02371   0.00469
  34        3PX         0.00180   0.00885  -0.01321  -0.01589  -0.00292
  35        3PY        -0.00191  -0.01838   0.01990  -0.00246  -0.03858
  36        3PZ         0.00113  -0.01153  -0.00803   0.00761   0.03042
                          16        17        18        19        20
  16        3PX         0.36234
  17        3PY        -0.00000   0.31751
  18        3PZ         0.00000   0.01561   0.37483
  19 3   F  1S         -0.00320  -0.00173  -0.00327   1.02924
  20        2S          0.00076   0.00252   0.00113   0.03207   0.06851
  21        2PX         0.00346   0.01010   0.01272   0.00909  -0.00923
  22        2PY         0.01527   0.02529  -0.00598   0.00525  -0.00533
  23        2PZ         0.01007  -0.01253   0.00761   0.00287  -0.00238
  24        3S          0.03487   0.01676   0.03042  -0.24182   0.19663
  25        3PX         0.00722   0.01447   0.02329   0.00355  -0.00983
  26        3PY         0.01972   0.02696  -0.00845   0.00205  -0.00568
  27        3PZ         0.01896  -0.01595   0.01260  -0.00004  -0.00206
  28 4   F  1S          0.00320  -0.00173  -0.00327   0.00008   0.00096
  29        2S         -0.00076   0.00252   0.00113   0.00096   0.00008
  30        2PX         0.00346  -0.01010  -0.01272  -0.00496   0.00206
  31        2PY        -0.01527   0.02529  -0.00598  -0.00210  -0.00055
  32        2PZ        -0.01007  -0.01253   0.00761  -0.00311   0.00044
  33        3S         -0.03487   0.01676   0.03042  -0.00252   0.00007
  34        3PX         0.00722  -0.01447  -0.02329  -0.00310   0.00256
  35        3PY        -0.01972   0.02696  -0.00845  -0.00191  -0.00060
  36        3PZ        -0.01896  -0.01595   0.01260  -0.00327   0.00113
                          21        22        23        24        25
  21        2PX         0.24197
  22        2PY        -0.01881   0.26370
  23        2PZ        -0.01383  -0.00799   0.27968
  24        3S         -0.03129  -0.01806  -0.00912   0.68669
  25        3PX         0.28184  -0.01933  -0.01456  -0.02980   0.32872
  26        3PY        -0.01933   0.30415  -0.00841  -0.01720  -0.01941
  27        3PZ        -0.01347  -0.00778   0.32299  -0.00386  -0.01352
  28 4   F  1S          0.00496  -0.00210  -0.00311  -0.00252   0.00310
  29        2S         -0.00206  -0.00055   0.00044   0.00007  -0.00256
  30        2PX         0.02551  -0.00248  -0.00294   0.02852   0.03082
  31        2PY         0.00248  -0.00159   0.00680   0.01928   0.00570
  32        2PZ         0.00294   0.00680   0.00471   0.02371   0.00581
  33        3S         -0.02852   0.01928   0.02371   0.00469  -0.03195
  34        3PX         0.03082  -0.00570  -0.00581   0.03195   0.03683
  35        3PY        -0.00053  -0.00207   0.01499   0.02181   0.00263
  36        3PZ         0.00118   0.01400   0.00761   0.03042   0.00433
                          26        27        28        29        30
  26        3PY         0.35114
  27        3PZ        -0.00781   0.37483
  28 4   F  1S         -0.00191  -0.00327   1.02924
  29        2S         -0.00060   0.00113   0.03207   0.06851
  30        2PX         0.00053  -0.00118  -0.00909   0.00923   0.24197
  31        2PY        -0.00207   0.01400   0.00525  -0.00533   0.01881
  32        2PZ         0.01499   0.00761   0.00287  -0.00238   0.01383
  33        3S          0.02181   0.03042  -0.24182   0.19663   0.03129
  34        3PX        -0.00263  -0.00433  -0.00355   0.00983   0.28184
  35        3PY        -0.00264   0.02439   0.00205  -0.00568   0.01933
  36        3PZ         0.02439   0.01260  -0.00004  -0.00206   0.01347
                          31        32        33        34        35
  31        2PY         0.26370
  32        2PZ        -0.00799   0.27968
  33        3S         -0.01806  -0.00912   0.68669
  34        3PX         0.01933   0.01456   0.02980   0.32872
  35        3PY         0.30415  -0.00841  -0.01720   0.01941   0.35114
  36        3PZ        -0.00778   0.32299  -0.00386   0.01352  -0.00781
                          36
  36        3PZ         0.37483
     Beta Density Matrix:
                           1         2         3         4         5
   1 1   B  1S          0.99375
   2        2S          0.05449   0.05238
   3        2PX         0.00000  -0.00000   0.05352
   4        2PY        -0.00000   0.00000   0.00000   0.05352
   5        2PZ         0.00783  -0.01955   0.00000  -0.00000   0.01565
   6        3S         -0.04779   0.03714  -0.00000   0.00000  -0.01579
   7        3PX         0.00000   0.00000   0.01039   0.00000  -0.00000
   8        3PY        -0.00000  -0.00000   0.00000   0.01039   0.00000
   9        3PZ        -0.00517   0.00739  -0.00000   0.00000   0.01072
  10 2   F  1S          0.00240  -0.00170  -0.00000  -0.00379  -0.00021
  11        2S         -0.00052  -0.00006   0.00000   0.00443  -0.00087
  12        2PX         0.00000  -0.00000   0.01362  -0.00000   0.00000
  13        2PY         0.02598  -0.04495  -0.00000  -0.07720   0.03007
  14        2PZ        -0.01474   0.02454   0.00000   0.04016   0.01182
  15        3S         -0.00821  -0.00259   0.00000   0.01116   0.00195
  16        3PX         0.00000  -0.00000   0.01575  -0.00000   0.00000
  17        3PY         0.03935  -0.05307  -0.00000  -0.09101   0.03456
  18        3PZ        -0.02015   0.02860   0.00000   0.04807   0.01339
  19 3   F  1S          0.00240  -0.00170   0.00328   0.00189  -0.00021
  20        2S         -0.00052  -0.00006  -0.00383  -0.00221  -0.00087
  21        2PX        -0.02250   0.03892  -0.05450  -0.03933  -0.02604
  22        2PY        -0.01299   0.02247  -0.03933  -0.00909  -0.01504
  23        2PZ        -0.01474   0.02454  -0.03478  -0.02008   0.01182
  24        3S         -0.00821  -0.00259  -0.00966  -0.00558   0.00195
  25        3PX        -0.03408   0.04596  -0.06432  -0.04623  -0.02993
  26        3PY        -0.01967   0.02654  -0.04623  -0.01094  -0.01728
  27        3PZ        -0.02015   0.02860  -0.04163  -0.02403   0.01339
  28 4   F  1S          0.00240  -0.00170  -0.00328   0.00189  -0.00021
  29        2S         -0.00052  -0.00006   0.00383  -0.00221  -0.00087
  30        2PX         0.02250  -0.03892  -0.05450   0.03933   0.02604
  31        2PY        -0.01299   0.02247   0.03933  -0.00909  -0.01504
  32        2PZ        -0.01474   0.02454   0.03478  -0.02008   0.01182
  33        3S         -0.00821  -0.00259   0.00966  -0.00558   0.00195
  34        3PX         0.03408  -0.04596  -0.06432   0.04623   0.02993
  35        3PY        -0.01967   0.02654   0.04623  -0.01094  -0.01728
  36        3PZ        -0.02015   0.02860   0.04163  -0.02403   0.01339
                           6         7         8         9        10
   6        3S          0.03466
   7        3PX         0.00000   0.02273
   8        3PY        -0.00000   0.00000   0.02273
   9        3PZ         0.00761  -0.00000   0.00000   0.02680
  10 2   F  1S          0.00656   0.00000   0.00570  -0.00311   1.02875
  11        2S          0.00170   0.00000   0.00166  -0.00196   0.03280
  12        2PX        -0.00000   0.05495  -0.00000   0.00000  -0.00000
  13        2PY        -0.03726  -0.00000   0.00969   0.01309  -0.01134
  14        2PZ         0.02316   0.00000   0.02952   0.04495   0.00635
  15        3S          0.00140  -0.00000  -0.00845   0.00115  -0.23955
  16        3PX        -0.00000   0.06219  -0.00000   0.00000  -0.00000
  17        3PY        -0.04484  -0.00000   0.01256   0.01311  -0.00516
  18        3PZ         0.02725   0.00000   0.03240   0.05187   0.00374
  19 3   F  1S          0.00656  -0.00494  -0.00285  -0.00311  -0.00024
  20        2S          0.00170  -0.00144  -0.00083  -0.00196   0.00118
  21        2PX         0.03227   0.02100  -0.01960  -0.01134   0.00156
  22        2PY         0.01863  -0.01960   0.04363  -0.00654   0.00560
  23        2PZ         0.02316  -0.02556  -0.01476   0.04495  -0.00094
  24        3S          0.00140   0.00732   0.00423   0.00115  -0.00061
  25        3PX         0.03884   0.02497  -0.02149  -0.01135   0.00109
  26        3PY         0.02242  -0.02149   0.04978  -0.00655   0.00410
  27        3PZ         0.02725  -0.02806  -0.01620   0.05187  -0.00012
  28 4   F  1S          0.00656   0.00494  -0.00285  -0.00311  -0.00024
  29        2S          0.00170   0.00144  -0.00083  -0.00196   0.00118
  30        2PX        -0.03227   0.02100   0.01960   0.01134  -0.00156
  31        2PY         0.01863   0.01960   0.04363  -0.00654   0.00560
  32        2PZ         0.02316   0.02556  -0.01476   0.04495  -0.00094
  33        3S          0.00140  -0.00732   0.00423   0.00115  -0.00061
  34        3PX        -0.03884   0.02497   0.02149   0.01135  -0.00109
  35        3PY         0.02242   0.02149   0.04978  -0.00655   0.00410
  36        3PZ         0.02725   0.02806  -0.01620   0.05187  -0.00012
                          11        12        13        14        15
  11        2S          0.06737
  12        2PX         0.00000   0.27482
  13        2PY         0.01171  -0.00000   0.22882
  14        2PZ        -0.00681   0.00000   0.02481   0.25504
  15        3S          0.19376   0.00000   0.03984  -0.02610   0.67529
  16        3PX         0.00000   0.31692  -0.00000   0.00000   0.00000
  17        3PY         0.01267  -0.00000   0.26931   0.02639   0.03960
  18        3PZ        -0.00683   0.00000   0.02572   0.29870  -0.02481
  19 3   F  1S          0.00118  -0.00407  -0.00415  -0.00094  -0.00061
  20        2S         -0.00003   0.00056   0.00268  -0.00135  -0.00135
  21        2PX        -0.00205   0.00482   0.01159   0.00216  -0.00335
  22        2PY        -0.00183   0.01344   0.01927  -0.00382  -0.03529
  23        2PZ        -0.00135   0.00439   0.00004  -0.00920   0.01141
  24        3S         -0.00135   0.02889   0.02054   0.01141  -0.00642
  25        3PX        -0.00259   0.00814   0.01674   0.00896  -0.00455
  26        3PY        -0.00241   0.01701   0.02061  -0.00692  -0.04045
  27        3PZ        -0.00146   0.01166   0.00085  -0.01263   0.01262
  28 4   F  1S          0.00118   0.00407  -0.00415  -0.00094  -0.00061
  29        2S         -0.00003  -0.00056   0.00268  -0.00135  -0.00135
  30        2PX         0.00205   0.00482  -0.01159  -0.00216   0.00335
  31        2PY        -0.00183  -0.01344   0.01927  -0.00382  -0.03529
  32        2PZ        -0.00135  -0.00439   0.00004  -0.00920   0.01141
  33        3S         -0.00135  -0.02889   0.02054   0.01141  -0.00642
  34        3PX         0.00259   0.00814  -0.01674  -0.00896   0.00455
  35        3PY        -0.00241  -0.01701   0.02061  -0.00692  -0.04045
  36        3PZ        -0.00146  -0.01166   0.00085  -0.01263   0.01262
                          16        17        18        19        20
  16        3PX         0.36575
  17        3PY        -0.00000   0.31741
  18        3PZ         0.00000   0.02684   0.35028
  19 3   F  1S         -0.00301  -0.00299  -0.00012   1.02875
  20        2S          0.00079   0.00345  -0.00146   0.03280   0.06737
  21        2PX         0.00288   0.01370   0.00510   0.00982  -0.01014
  22        2PY         0.01397   0.02587  -0.01053   0.00567  -0.00586
  23        2PZ         0.01047  -0.00430  -0.01263   0.00635  -0.00681
  24        3S          0.03276   0.02416   0.01262  -0.23955   0.19376
  25        3PX         0.00627   0.01961   0.01333   0.00447  -0.01097
  26        3PY         0.01766   0.02778  -0.01514   0.00258  -0.00633
  27        3PZ         0.01978  -0.00397  -0.01712   0.00374  -0.00683
  28 4   F  1S          0.00301  -0.00299  -0.00012  -0.00024   0.00118
  29        2S         -0.00079   0.00345  -0.00146   0.00118  -0.00003
  30        2PX         0.00288  -0.01370  -0.00510  -0.00563   0.00260
  31        2PY        -0.01397   0.02587  -0.01053  -0.00145  -0.00086
  32        2PZ        -0.01047  -0.00430  -0.01263  -0.00094  -0.00135
  33        3S         -0.03276   0.02416   0.01262  -0.00061  -0.00135
  34        3PX         0.00627  -0.01961  -0.01333  -0.00409   0.00338
  35        3PY        -0.01766   0.02778  -0.01514  -0.00111  -0.00104
  36        3PZ        -0.01978  -0.00397  -0.01712  -0.00012  -0.00146
                          21        22        23        24        25
  21        2PX         0.24032
  22        2PY        -0.01992   0.26332
  23        2PZ        -0.02148  -0.01240   0.25504
  24        3S         -0.03450  -0.01992  -0.02610   0.67529
  25        3PX         0.28122  -0.02061  -0.02286  -0.03430   0.32949
  26        3PY        -0.02061   0.30502  -0.01320  -0.01980  -0.02093
  27        3PZ        -0.02228  -0.01286   0.29870  -0.02481  -0.02324
  28 4   F  1S          0.00563  -0.00145  -0.00094  -0.00061   0.00409
  29        2S         -0.00260  -0.00086  -0.00135  -0.00135  -0.00338
  30        2PX         0.02650  -0.00092   0.00223   0.03224   0.03211
  31        2PY         0.00092  -0.00241   0.00378   0.01475   0.00317
  32        2PZ        -0.00223   0.00378  -0.00920   0.01141  -0.00151
  33        3S         -0.03224   0.01475   0.01141  -0.00642  -0.03730
  34        3PX         0.03211  -0.00317   0.00151   0.03730   0.03854
  35        3PY        -0.00290  -0.00335   0.01121   0.01629  -0.00097
  36        3PZ        -0.00657   0.00968  -0.01263   0.01262  -0.00645
                          26        27        28        29        30
  26        3PY         0.35367
  27        3PZ        -0.01342   0.35028
  28 4   F  1S         -0.00111  -0.00012   1.02875
  29        2S         -0.00104  -0.00146   0.03280   0.06737
  30        2PX         0.00290   0.00657  -0.00982   0.01014   0.24032
  31        2PY        -0.00335   0.00968   0.00567  -0.00586   0.01992
  32        2PZ         0.01121  -0.01263   0.00635  -0.00681   0.02148
  33        3S          0.01629   0.01262  -0.23955   0.19376   0.03450
  34        3PX         0.00097   0.00645  -0.00447   0.01097   0.28122
  35        3PY        -0.00449   0.01911   0.00258  -0.00633   0.02061
  36        3PZ         0.01911  -0.01712   0.00374  -0.00683   0.02228
                          31        32        33        34        35
  31        2PY         0.26332
  32        2PZ        -0.01240   0.25504
  33        3S         -0.01992  -0.02610   0.67529
  34        3PX         0.02061   0.02286   0.03430   0.32949
  35        3PY         0.30502  -0.01320  -0.01980   0.02093   0.35367
  36        3PZ        -0.01286   0.29870  -0.02481   0.02324  -0.01342
                          36
  36        3PZ         0.35028
    Full Mulliken population analysis:
                           1         2         3         4         5
   1 1   B  1S          2.00790
   2        2S          0.01598   0.13125
   3        2PX         0.00000   0.00000   0.10904
   4        2PY         0.00000   0.00000   0.00000   0.10904
   5        2PZ         0.00000   0.00000   0.00000   0.00000   0.20548
   6        3S         -0.03246   0.12820   0.00000   0.00000   0.00000
   7        3PX         0.00000   0.00000   0.01154  -0.00000   0.00000
   8        3PY         0.00000   0.00000  -0.00000   0.01154   0.00000
   9        3PZ         0.00000   0.00000   0.00000   0.00000   0.09662
  10 2   F  1S          0.00000  -0.00000  -0.00000  -0.00009  -0.00004
  11        2S          0.00000  -0.00006   0.00000   0.00073   0.00025
  12        2PX        -0.00000   0.00000   0.00049   0.00000   0.00000
  13        2PY        -0.00000   0.00349   0.00000   0.01154   0.00288
  14        2PZ        -0.00000   0.00062   0.00000   0.00289  -0.00002
  15        3S         -0.00001  -0.00317   0.00000   0.00475   0.00378
  16        3PX        -0.00000   0.00000   0.00422   0.00000   0.00000
  17        3PY        -0.00258   0.02703   0.00000   0.05583   0.01626
  18        3PZ        -0.00022   0.00404   0.00000   0.01599  -0.00178
  19 3   F  1S          0.00000  -0.00000  -0.00007  -0.00002  -0.00004
  20        2S          0.00000  -0.00006   0.00055   0.00018   0.00025
  21        2PX        -0.00000   0.00262   0.00563   0.00315   0.00216
  22        2PY        -0.00000   0.00087   0.00315   0.00010   0.00072
  23        2PZ        -0.00000   0.00062   0.00217   0.00072  -0.00002
  24        3S         -0.00001  -0.00317   0.00356   0.00119   0.00378
  25        3PX        -0.00194   0.02027   0.02550   0.01743   0.01220
  26        3PY        -0.00065   0.00676   0.01743  -0.00031   0.00407
  27        3PZ        -0.00022   0.00404   0.01199   0.00400  -0.00178
  28 4   F  1S          0.00000  -0.00000  -0.00007  -0.00002  -0.00004
  29        2S          0.00000  -0.00006   0.00055   0.00018   0.00025
  30        2PX        -0.00000   0.00262   0.00563   0.00315   0.00216
  31        2PY        -0.00000   0.00087   0.00315   0.00010   0.00072
  32        2PZ        -0.00000   0.00062   0.00217   0.00072  -0.00002
  33        3S         -0.00001  -0.00317   0.00356   0.00119   0.00378
  34        3PX        -0.00194   0.02027   0.02550   0.01743   0.01220
  35        3PY        -0.00065   0.00676   0.01743  -0.00031   0.00407
  36        3PZ        -0.00022   0.00404   0.01199   0.00400  -0.00178
                           6         7         8         9        10
   6        3S          0.48455
   7        3PX         0.00000   0.04626
   8        3PY         0.00000   0.00000   0.04626
   9        3PZ         0.00000   0.00000   0.00000   0.17961
  10 2   F  1S          0.00061   0.00000   0.00054   0.00000   2.05799
  11        2S         -0.00063   0.00000   0.00071   0.00074   0.01393
  12        2PX         0.00000   0.00542   0.00000   0.00000   0.00000
  13        2PY         0.00197   0.00000  -0.00059   0.00147   0.00000
  14        2PZ        -0.00068   0.00000   0.00180   0.00150   0.00000
  15        3S         -0.02093  -0.00000  -0.00901   0.00673  -0.08837
  16        3PX         0.00000   0.03275   0.00000   0.00000   0.00000
  17        3PY         0.01141   0.00000  -0.00257   0.00758   0.00000
  18        3PZ        -0.00660   0.00000   0.00868   0.00701   0.00000
  19 3   F  1S          0.00061   0.00041   0.00014   0.00000   0.00000
  20        2S         -0.00063   0.00053   0.00018   0.00074   0.00000
  21        2PX         0.00148  -0.00054   0.00146   0.00111   0.00000
  22        2PY         0.00049   0.00146   0.00246   0.00037   0.00000
  23        2PZ        -0.00068   0.00135   0.00045   0.00150   0.00000
  24        3S         -0.02093  -0.00676  -0.00225   0.00673  -0.00000
  25        3PX         0.00856  -0.00089   0.00715   0.00568   0.00000
  26        3PY         0.00285   0.00715   0.01677   0.00189   0.00000
  27        3PZ        -0.00660   0.00651   0.00217   0.00701   0.00000
  28 4   F  1S          0.00061   0.00041   0.00014   0.00000   0.00000
  29        2S         -0.00063   0.00053   0.00018   0.00074   0.00000
[...]

       Atom             a.u.   MegaHertz   Gauss  10(-4) cm-1        Axes

              Baa    -0.1631   -27.932    -9.967    -9.317  0.8707  0.4918  0.0000
     1 B(11)  Bbb    -0.1631   -27.932    -9.967    -9.317 -0.4918  0.8707 -0.0000
              Bcc     0.3263    55.865    19.934    18.634 -0.0000  0.0000  1.0000
 
              Baa    -0.2270  -114.014   -40.683   -38.031  1.0000  0.0000  0.0000
     2 F(19)  Bbb    -0.2151  -108.046   -38.554   -36.040 -0.0000  0.9620  0.2730
              Bcc     0.4422   222.061    79.237    74.071  0.0000 -0.2730  0.9620
 
              Baa    -0.2270  -114.014   -40.683   -38.031 -0.5000  0.8660 -0.0000
     3 F(19)  Bbb    -0.2151  -108.046   -38.554   -36.040  0.8331  0.4810 -0.2730
              Bcc     0.4422   222.061    79.237    74.071  0.2364  0.1365  0.9620
 
              Baa    -0.2270  -114.014   -40.683   -38.031  0.5000  0.8660 -0.0000
     4 F(19)  Bbb    -0.2151  -108.046   -38.554   -36.040  0.8331 -0.4810  0.2730
              Bcc     0.4422   222.061    79.237    74.071 -0.2364  0.1365  0.9620
 

 ---------------------------------------------------------------------------------

 Calling FoFJK, ICntrl=    100127 FMM=F ISym2X=1 I1Cent= 0 IOpClX= 1 NMat=1 NMatS=1 NMatT=0.
 Full mass-weighted force constant matrix:
 Low frequencies ---   -0.0027   -0.0022   -0.0016    6.0102    6.5818    6.5822
 Low frequencies ---  432.7679  432.7679  623.1274
 Diagonal vibrational polarizability:
        4.1572822       4.1572823       4.2107987
 Diagonal vibrational hyperpolarizability:
        0.0000000      -2.8399285      13.5764782
 Harmonic frequencies (cm**-1), IR intensities (KM/Mole), Raman scattering
 activities (A**4/AMU), depolarization ratios for plane and unpolarized
 incident light, reduced masses (AMU), force constants (mDyne/A),
 and normal coordinates:
                      1                      2                      3
                      E                      E                     A1
 Frequencies --    432.7679               432.7679               623.1274
 Red. masses --     18.0480                18.0480                16.5815
 Frc consts  --      1.9915                 1.9915                 3.7934
 IR Inten    --      2.0411                 2.0411                20.3693
 Raman Activ --      0.1987                 0.1987                 0.5169
 Depolar (P) --      0.7500                 0.7500                 0.7439
 Depolar (U) --      0.8571                 0.8571                 0.8531
  Atom  AN      X      Y      Z        X      Y      Z        X      Y      Z
     1   5     0.00   0.34   0.00    -0.34   0.00   0.00     0.00   0.00  -0.55
     2   9    -0.00   0.47   0.05     0.60   0.00   0.00    -0.00   0.47   0.11
     3   9     0.46  -0.33  -0.02    -0.20  -0.46   0.04    -0.41  -0.24   0.11
     4   9    -0.46  -0.33  -0.02    -0.20   0.46  -0.04     0.41  -0.24   0.11
                      4                      5                      6
                     A1                      E                      E
 Frequencies --   1072.5629              1230.2840              1230.2840
 Red. masses --     12.9910                12.4118                12.4118
 Frc consts  --      8.8052                11.0687                11.0687
 IR Inten    --    119.6530               217.3274               217.3274
 Raman Activ --      1.9149                 1.4769                 1.4769
 Depolar (P) --      0.0060                 0.7500                 0.7500
 Depolar (U) --      0.0119                 0.8571                 0.8571
  Atom  AN      X      Y      Z        X      Y      Z        X      Y      Z
     1   5     0.00  -0.00   0.87     0.00   0.91   0.00     0.91  -0.00  -0.00
     2   9    -0.00   0.23  -0.17    -0.00  -0.32   0.13    -0.04   0.00  -0.00
     3   9    -0.20  -0.12  -0.17    -0.12  -0.11  -0.06    -0.25  -0.12  -0.11
     4   9     0.20  -0.12  -0.17     0.12  -0.11  -0.06    -0.25   0.12   0.11

 -------------------
 - Thermochemistry -
 -------------------
 Temperature   298.150 Kelvin.  Pressure   1.00000 Atm.
 Atom     1 has atomic number  5 and mass  11.00931
 Atom     2 has atomic number  9 and mass  18.99840
 Atom     3 has atomic number  9 and mass  18.99840
 Atom     4 has atomic number  9 and mass  18.99840
 Molecular mass:    68.00452 amu.
 Principal axes and moments of inertia in atomic units:
                           1         2         3
     Eigenvalues --   188.73697 188.73697 362.04438
           X           -0.36330   0.93167   0.00000
           Y            0.93167   0.36330   0.00000
           Z           -0.00000   0.00000   1.00000
 This molecule is an oblate symmetric top.
 Rotational symmetry number  3.
 Rotational temperatures (Kelvin)      0.45891     0.45891     0.23924
 Rotational constants (GHZ):           9.56220     9.56220     4.98486
 Zero-point vibrational energy      30037.0 (Joules/Mol)
                                    7.17901 (Kcal/Mol)
 Warning -- explicit consideration of   2 degrees of freedom as
           vibrations may cause significant error
 Vibrational temperatures:    622.66   622.66   896.54  1543.18  1770.10
          (Kelvin)           1770.10
 
 Zero-point correction=                           0.011440 (Hartree/Particle)
 Thermal correction to Energy=                    0.015036
 Thermal correction to Enthalpy=                  0.015980
 Thermal correction to Gibbs Free Energy=        -0.014470
 Sum of electronic and zero-point Energies=           -321.390453
 Sum of electronic and thermal Energies=              -321.386858
 Sum of electronic and thermal Enthalpies=            -321.385914
 Sum of electronic and thermal Free Energies=         -321.416364
 
                     E (Thermal)             CV                S
                      KCal/Mol        Cal/Mol-Kelvin    Cal/Mol-Kelvin
 Total                    9.435             10.419             64.087
 Electronic               0.000              0.000              1.377
 Translational            0.889              2.981             38.569
 Rotational               0.889              2.981             21.887
 Vibrational              7.658              4.457              2.254
 Vibration     1          0.794              1.399              0.850
 Vibration     2          0.794              1.399              0.850
                       Q            Log10(Q)             Ln(Q)
 Total Bot       0.452536D+07          6.655653         15.325208
 Total V=0       0.827767D+12         11.917908         27.441998
 Vib (Bot)       0.757532D-05         -5.120599        -11.790616
 Vib (Bot)    1  0.401743D+00         -0.396051         -0.911942
 Vib (Bot)    2  0.401743D+00         -0.396051         -0.911942
 Vib (V=0)       0.138566D+01          0.141656          0.326174
 Vib (V=0)    1  0.114140D+01          0.057439          0.132258
 Vib (V=0)    2  0.114140D+01          0.057439          0.132258
 Electronic      0.200000D+01          0.301030          0.693147
 Translational   0.220425D+08          7.343261         16.908482
 Rotational      0.135507D+05          4.131962          9.514195
 ***** Axes restored to original set *****
 -------------------------------------------------------------------
 Center     Atomic                   Forces (Hartrees/Bohr)
 Number     Number              X              Y              Z
 -------------------------------------------------------------------
      1        5           0.000000000    0.000000000    0.000067880
      2        9          -0.000000000   -0.000065430   -0.000022627
      3        9          -0.000056664    0.000032715   -0.000022627
      4        9           0.000056664    0.000032715   -0.000022627
 -------------------------------------------------------------------
 Cartesian Forces:  Max     0.000067880 RMS     0.000039777
 FormGI is forming the generalized inverse of G from B-inverse, IUseBI=4.

 GradGradGradGradGradGradGradGradGradGradGradGradGradGradGradGradGradGrad
 Berny optimization.
 Internal  Forces:  Max     0.000069224 RMS     0.000045332
 Search for a local minimum.
 Step number   1 out of a maximum of    2
 All quantities printed in internal units (Hartrees-Bohrs-Radians)
 Second derivative matrix not updated -- analytic derivatives used.
 The second derivative matrix:
                          R1        R2        R3        A1        A2
           R1           0.36369
           R2           0.03624   0.36369
           R3           0.03624   0.03624   0.36369
           A1           0.01301   0.01301  -0.02070   0.10154
           A2           0.02451  -0.01987   0.02966  -0.07138   0.25877
           A3          -0.01987   0.02451   0.02966  -0.07138  -0.00131
           D1          -0.01841  -0.01841  -0.00957  -0.03941  -0.06386
                          A3        D1
           A3           0.25877
           D1          -0.06386   0.12202
 ITU=  0
     Eigenvalues ---    0.14731   0.23805   0.29065   0.34948   0.35953
     Eigenvalues ---    0.44717
 Angle between quadratic step and forces=   8.43 degrees.
 Linear search not attempted -- first point.
 Iteration  1 RMS(Cart)=  0.00009579 RMS(Int)=  0.00000000
 Iteration  2 RMS(Cart)=  0.00000000 RMS(Int)=  0.00000000
 ClnCor:  largest displacement from symmetrization is 1.80D-10 for atom     4.
 Variable       Old X    -DE/DX   Delta X   Delta X   Delta X     New X
                                 (Linear)    (Quad)   (Total)
    R1        2.68110  -0.00007   0.00000  -0.00016  -0.00016   2.68094
    R2        2.68110  -0.00007   0.00000  -0.00016  -0.00016   2.68094
    R3        2.68110  -0.00007   0.00000  -0.00016  -0.00016   2.68094
    A1        1.90237  -0.00000   0.00000   0.00001   0.00001   1.90238
    A2        1.90237  -0.00000   0.00000   0.00001   0.00001   1.90238
    A3        1.90237  -0.00000   0.00000   0.00001   0.00001   1.90238
    D1       -2.07446   0.00000   0.00000  -0.00003  -0.00003  -2.07449
         Item               Value     Threshold  Converged?
 Maximum Force            0.000069     0.000450     YES
 RMS     Force            0.000045     0.000300     YES
 Maximum Displacement     0.000140     0.001800     YES
 RMS     Displacement     0.000096     0.001200     YES
 Predicted change in Energy=-1.660208D-08
 Optimization completed.
    -- Stationary point found.
                           ----------------------------
                           !   Optimized Parameters   !
                           ! (Angstroms and Degrees)  !
 --------------------------                            --------------------------
 ! Name  Definition              Value          Derivative Info.                !
 --------------------------------------------------------------------------------
 ! R1    R(1,2)                  1.4188         -DE/DX =   -0.0001              !
 ! R2    R(1,3)                  1.4188         -DE/DX =   -0.0001              !
 ! R3    R(1,4)                  1.4188         -DE/DX =   -0.0001              !
 ! A1    A(2,1,3)              108.9975         -DE/DX =    0.0                 !
 ! A2    A(2,1,4)              108.9975         -DE/DX =    0.0                 !
 ! A3    A(3,1,4)              108.9975         -DE/DX =    0.0                 !
 ! D1    D(2,1,4,3)           -118.8579         -DE/DX =    0.0                 !
 --------------------------------------------------------------------------------
 GradGradGradGradGradGradGradGradGradGradGradGradGradGradGradGradGradGrad


 ----------------------------------------------------------------------

 Electric dipole moment (input orientation):
 (Debye = 10**-18 statcoulomb cm , SI units = C m)
                  (au)            (Debye)         (10**-30 SI)
   Tot        0.120841D+00      0.307147D+00      0.102453D+01
   x          0.000000D+00      0.000000D+00      0.000000D+00
   y          0.000000D+00      0.000000D+00      0.000000D+00
   z          0.120841D+00      0.307147D+00      0.102453D+01

 Dipole polarizability, Alpha (input orientation).
 (esu units = cm**3 , SI units = C**2 m**2 J**-1)
 Alpha(0;0):
               (au)            (10**-24 esu)      (10**-40 SI)
   iso        0.100377D+02      0.148744D+01      0.165500D+01
   aniso      0.454924D+01      0.674128D+00      0.750069D+00
   xx         0.115542D+02      0.171215D+01      0.190502D+01
   yx         0.000000D+00      0.000000D+00      0.000000D+00
   yy         0.115542D+02      0.171215D+01      0.190502D+01
   zx         0.000000D+00      0.000000D+00      0.000000D+00
   zy         0.000000D+00      0.000000D+00      0.000000D+00
   zz         0.700491D+01      0.103802D+01      0.115495D+01

 First dipole hyperpolarizability, Beta (input orientation).
 ||, _|_  parallel and perpendicular components, (z) with respect to z axis,
 vector components x,y,z.  Values do not include the 1/n! factor of 1/2.
 (esu units = statvolt**-1 cm**4 , SI units = C**3 m**3 J**-2)
 Beta(0;0,0):
               (au)            (10**-30 esu)      (10**-50 SI)
   || (z)    -0.290246D+02     -0.250750D+00     -0.930634D-01
   _|_(z)    -0.967488D+01     -0.835834D-01     -0.310211D-01
   x          0.000000D+00      0.000000D+00      0.000000D+00
   y          0.000000D+00      0.000000D+00      0.000000D+00
   z         -0.145123D+03     -0.125375D+01     -0.465317D+00
   ||         0.290246D+02      0.250750D+00      0.930634D-01
   xxx        0.000000D+00      0.000000D+00      0.000000D+00
   xxy        0.139386D+02      0.120418D+00      0.446921D-01
   yxy        0.000000D+00      0.000000D+00      0.000000D+00
   yyy       -0.139386D+02     -0.120418D+00     -0.446921D-01
   xxz       -0.114931D+02     -0.992910D-01     -0.368509D-01
   yxz        0.000000D+00      0.000000D+00      0.000000D+00
   yyz       -0.114931D+02     -0.992910D-01     -0.368509D-01
   zxz        0.000000D+00      0.000000D+00      0.000000D+00
   zyz        0.000000D+00      0.000000D+00      0.000000D+00
   zzz       -0.253883D+02     -0.219335D+00     -0.814040D-01

 ----------------------------------------------------------------------

 Dipole orientation:
     5         -0.00000000          0.00000053         -0.78600681
     9          0.00000010          2.52035558          0.12838335
     9          2.18269145         -1.26017708          0.12838335
     9         -2.18269155         -1.26017690          0.12838335

 Electric dipole moment (dipole orientation):
 (Debye = 10**-18 statcoulomb cm , SI units = C m)
                  (au)            (Debye)         (10**-30 SI)
   Tot        0.120841D+00      0.307147D+00      0.102453D+01
   x          0.000000D+00      0.000000D+00      0.000000D+00
   y          0.000000D+00      0.000000D+00      0.000000D+00
   z          0.120841D+00      0.307147D+00      0.102453D+01

 Dipole polarizability, Alpha (dipole orientation).
 (esu units = cm**3 , SI units = C**2 m**2 J**-1)
 Alpha(0;0):
               (au)            (10**-24 esu)      (10**-40 SI)
   iso        0.100377D+02      0.148744D+01      0.165500D+01
   aniso      0.454924D+01      0.674128D+00      0.750069D+00
   xx         0.115542D+02      0.171215D+01      0.190502D+01
   yx         0.000000D+00      0.000000D+00      0.000000D+00
   yy         0.115542D+02      0.171215D+01      0.190502D+01
   zx         0.000000D+00      0.000000D+00      0.000000D+00
   zy         0.000000D+00      0.000000D+00      0.000000D+00
   zz         0.700491D+01      0.103802D+01      0.115495D+01

 First dipole hyperpolarizability, Beta (dipole orientation).
 ||, _|_  parallel and perpendicular components, (z) with respect to z axis,
 vector components x,y,z.  Values do not include the 1/n! factor of 1/2.
 (esu units = statvolt**-1 cm**4 , SI units = C**3 m**3 J**-2)
 Beta(0;0,0):
               (au)            (10**-30 esu)      (10**-50 SI)
   || (z)    -0.290246D+02     -0.250750D+00     -0.930634D-01
   _|_(z)    -0.967488D+01     -0.835834D-01     -0.310211D-01
   x          0.000000D+00      0.000000D+00      0.000000D+00
   y          0.000000D+00      0.000000D+00      0.000000D+00
   z         -0.145123D+03     -0.125375D+01     -0.465317D+00
   ||         0.290246D+02      0.250750D+00      0.930634D-01
   xxx        0.000000D+00      0.000000D+00      0.000000D+00
   xxy        0.139386D+02      0.120418D+00      0.446921D-01
   yxy        0.000000D+00      0.000000D+00      0.000000D+00
   yyy       -0.139386D+02     -0.120418D+00     -0.446921D-01
   xxz       -0.114931D+02     -0.992910D-01     -0.368509D-01
   yxz        0.000000D+00      0.000000D+00      0.000000D+00
   yyz       -0.114931D+02     -0.992910D-01     -0.368509D-01
   zxz        0.000000D+00      0.000000D+00      0.000000D+00
   zyz        0.000000D+00      0.000000D+00      0.000000D+00
   zzz       -0.253883D+02     -0.219335D+00     -0.814040D-01

 ----------------------------------------------------------------------
 1\1\GINC-IISERK51\Freq\UHF\3-21G\B1F3(1-,2)\GAUSSIAN\16-Jun-2025\0\\#N
  Geom=AllCheck Guess=TCheck SCRF=Check GenChk UHF/3-21G Freq\\BF3- pla
 nar opt structure\\-1,2\B,0.,0.0000002812,-0.4159368889\F,0.0000000547
 ,1.333714737,0.0679375436\F,1.1550305727,-0.666856994,0.0679375436\F,-
 1.1550306274,-0.6668568992,0.0679375436\\Version=EM64L-G16RevB.01\Stat
 e=2-A1\HF=-321.4018939\S2=0.751613\S2-1=0.\S2A=0.750002\RMSD=3.848e-10
 \RMSF=3.978e-05\ZeroPoint=0.0114405\Thermal=0.0150358\Dipole=0.,0.,0.1
 208409\DipoleDeriv=1.2135276,0.,0.,0.,1.2135276,0.,0.,0.,0.9810021,-0.
 4906784,0.,0.,0.,-0.9850067,-0.1144134,0.,-0.3632695,-0.660334,-0.8614
 246,0.2140504,-0.0990849,0.2140504,-0.6142605,0.0572067,-0.3146006,0.1
 816348,-0.660334,-0.8614246,-0.2140504,0.0990849,-0.2140504,-0.6142605
 ,0.0572067,0.3146006,0.1816347,-0.660334\Polar=11.5541559,0.,11.554155
 9,0.,0.,7.0049131\PolarDeriv=0.0000002,1.4329279,-0.0000002,-1.9226158
 ,0.,0.,1.432929,-0.0000002,-1.4329268,0.,-1.9226154,0.0000003,-1.30226
 91,0.,-1.302269,0.,0.,-3.3250183,0.,0.7945197,0.,0.2917187,0.,0.,-0.28
 82793,0.0000001,3.2113309,0.,0.9900248,-0.3917725,0.0875102,0.,0.78066
 88,0.,1.668353,1.1083395,2.3674433,-1.1137239,0.1639936,0.8154483,-0.3
 023755,-0.3392849,-0.5723244,1.101725,-0.8892015,-0.3023755,0.4662952,
 0.1958863,0.6073791,-0.3001465,0.2607998,1.4448361,-0.8341766,1.108339
 5,-2.3674436,-1.1137238,-0.1639935,0.8154483,0.3023754,0.3392849,-0.57
 23244,-1.1017249,-0.8892014,0.3023754,0.4662952,0.1958862,0.6073792,0.
 3001465,0.2607998,-1.4448362,-0.8341765,1.1083395\HyperPolar=0.0000017
 ,13.9385779,-0.0000017,-13.9385779,-11.4930539,0.,-11.4930539,0.,0.,-2
 5.3882726\Quadrupole=-1.1375466,-1.1375466,2.2750932,0.,0.,0.\PG=C03V 
 [C3(B1),3SGV(F1)]\NImag=0\\0.46682466,0.,0.46682466,0.,0.,0.33791959,-
 0.04792784,0.,0.,0.05366966,0.,-0.26328859,-0.09410978,0.00000001,0.33
 406201,0.,-0.11289202,-0.11263986,0.,0.09504505,0.06486891,-0.20944840
 ,0.09325396,-0.08150148,-0.00287091,0.02369028,0.00461201,0.26396391,0
 .09325395,-0.10176804,0.04705489,0.03262872,-0.03538671,0.00892349,-0.
 12141345,0.12376776,-0.09776737,0.05644602,-0.11263986,0.01003398,-0.0
 0046763,0.02388548,0.08231142,-0.04752253,0.06486891,-0.20944842,-0.09
 325395,0.08150148,-0.00287091,-0.02369029,-0.00461201,-0.05164460,-0.0
 0446922,0.00542197,0.26396393,-0.09325394,-0.10176802,0.04705489,-0.03
 262872,-0.03538670,0.00892349,0.00446922,0.01338698,-0.00845586,0.1214
 1344,0.12376774,0.09776737,0.05644601,-0.11263986,-0.01003398,-0.00046
 763,0.02388548,-0.00542197,-0.00845586,0.02388548,-0.08231143,-0.04752
 252,0.06486891\\0.,0.,-0.00006788,0.,0.00006543,0.00002263,0.00005666,
 -0.00003272,0.00002263,-0.00005666,-0.00003272,0.00002263\\\@


 KINETICS       FACT
 ---------  =  -------
 MECHANISM     FICTION
 Job cpu time:       0 days  0 hours  0 minutes  1.0 seconds.
 Elapsed time:       0 days  0 hours  0 minutes  1.0 seconds.
 File lengths (MBytes):  RWF=      6 Int=      0 D2E=      0 Chk=      1 Scr=      1
 Normal termination of Gaussian 16 at Mon Jun 16 20:01:27 2025.
