 Entering Gaussian System, Link 0=g16
 Input=/home/gaussian/Documents/Summer_Internship/Acid_Base_adduct/Acid/BF3/MX3-/MX3_planar_ion_opt.com
 Output=/home/gaussian/Documents/Summer_Internship/Acid_Base_adduct/Acid/BF3/MX3-/MX3_planar_ion_opt.log
 Initial command:
 /usr/local/g16/l1.exe "/home/gaussian/tmp/Gau-77840.inp" -scrdir="/home/gaussian/tmp/"
 Entering Link 1 = /usr/local/g16/l1.exe PID=     77843.
  
 Copyright (c) 1988-2017, Gaussian, Inc.  All Rights Reserved.
  
 This is part of the Gaussian(R) 16 program.  It is based on
 the Gaussian(R) 09 system (copyright 2009, Gaussian, Inc.),
 the Gaussian(R) 03 system (copyright 2003, Gaussian, Inc.),
 the Gaussian(R) 98 system (copyright 1998, Gaussian, Inc.),
 the Gaussian(R) 94 system (copyright 1995, Gaussian, Inc.),
 the Gaussian 92(TM) system (copyright 1992, Gaussian, Inc.),
 the Gaussian 90(TM) system (copyright 1990, Gaussian, Inc.),
 the Gaussian 88(TM) system (copyright 1988, Gaussian, Inc.),
 the Gaussian 86(TM) system (copyright 1986, Carnegie Mellon
 University), and the Gaussian 82(TM) system (copyright 1983,
 Carnegie Mellon University). Gaussian is a federally registered
 trademark of Gaussian, Inc.
  
 This software contains proprietary and confidential information,
 including trade secrets, belonging to Gaussian, Inc.
  
 This software is provided under written license and may be
 used, copied, transmitted, or stored only in accord with that
 written license.
  
 The following legend is applicable only to US Government
 contracts under FAR:
  
                    RESTRICTED RIGHTS LEGEND
  
 Use, reproduction and disclosure by the US Government is
 subject to restrictions as set forth in subparagraphs (a)
 and (c) of the Commercial Computer Software - Restricted
 Rights clause in FAR 52.227-19.
  
 Gaussian, Inc.
 340 Quinnipiac St., Bldg. 40, Wallingford CT 06492
  
  
 ---------------------------------------------------------------
 Warning -- This program may not be used in any manner that
 competes with the business of Gaussian, Inc. or will provide
 assistance to any competitor of Gaussian, Inc.  The licensee
 of this program is prohibited from giving any competitor of
 Gaussian, Inc. access to this program.  By using this program,
 the user acknowledges that Gaussian, Inc. is engaged in the
 business of creating and licensing software in the field of
 computational chemistry and represents and warrants to the
 licensee that it is not a competitor of Gaussian, Inc. and that
 it will not use this program in any manner prohibited above.
 ---------------------------------------------------------------
  

 Cite this work as:
 Gaussian 16, Revision B.01,
 M. J. Frisch, G. W. Trucks, H. B. Schlegel, G. E. Scuseria, 
 M. A. Robb, J. R. Cheeseman, G. Scalmani, V. Barone, 
 G. A. Petersson, H. Nakatsuji, X. Li, M. Caricato, A. V. Marenich, 
 J. Bloino, B. G. Janesko, R. Gomperts, B. Mennucci, H. P. Hratchian, 
 J. V. Ortiz, A. F. Izmaylov, J. L. Sonnenberg, D. Williams-Young, 
 F. Ding, F. Lipparini, F. Egidi, J. Goings, B. Peng, A. Petrone, 
 T. Henderson, D. Ranasinghe, V. G. Zakrzewski, J. Gao, N. Rega, 
 G. Zheng, W. Liang, M. Hada, M. Ehara, K. Toyota, R. Fukuda, 
 J. Hasegawa, M. Ishida, T. Nakajima, Y. Honda, O. Kitao, H. Nakai, 
 T. Vreven, K. Throssell, J. A. Montgomery, Jr., J. E. Peralta, 
 F. Ogliaro, M. J. Bearpark, J. J. Heyd, E. N. Brothers, K. N. Kudin, 
 V. N. Staroverov, T. A. Keith, R. Kobayashi, J. Normand, 
 K. Raghavachari, A. P. Rendell, J. C. Burant, S. S. Iyengar, 
 J. Tomasi, M. Cossi, J. M. Millam, M. Klene, C. Adamo, R. Cammi, 
 J. W. Ochterski, R. L. Martin, K. Morokuma, O. Farkas, 
 J. B. Foresman, and D. J. Fox, Gaussian, Inc., Wallingford CT, 2016.
 
 ******************************************
 Gaussian 16:  EM64L-G16RevB.01 20-Dec-2017
                16-Jun-2025 
 ******************************************
 %chk=MX3_planar_ion_opt.chk
 ----------------------------------------------
 # opt freq hf/3-21g pop=full geom=connectivity
 ----------------------------------------------
 1/18=20,19=15,38=1,57=2/1,3;
 2/9=110,12=2,17=6,18=5,40=1/2;
 3/5=5,11=9,25=1,30=1,71=1/1,2,3;
 4//1;
 5/5=2,38=5/2;
 6/7=3,28=1/1;
 7//1,2,3,16;
 1/18=20,19=15/3(2);
 2/9=110/2;
 99//99;
 2/9=110/2;
 3/5=5,11=9,25=1,30=1,71=1/1,2,3;
 4/5=5,16=3,69=1/1;
 5/5=2,38=5/2;
 7//1,2,3,16;
 1/18=20,19=15/3(-5);
 2/9=110/2;
 6/7=3,19=2,28=1/1;
 99/9=1/99;
 ---------------
 MX3- planar opt
 ---------------
 Symbolic Z-matrix:
 Charge = -1 Multiplicity = 2
 B                     1.01077   0.05459   0. 
 F                     0.28077   1.31899   0. 
 F                     0.28077  -1.2098    0. 
 F                     2.47077   0.05459   0. 
 

 GradGradGradGradGradGradGradGradGradGradGradGradGradGradGradGradGradGrad
 Berny optimization.
 Initialization pass.
                           ----------------------------
                           !    Initial Parameters    !
                           ! (Angstroms and Degrees)  !
 --------------------------                            --------------------------
 ! Name  Definition              Value          Derivative Info.                !
 --------------------------------------------------------------------------------
 ! R1    R(1,2)                  1.46           estimate D2E/DX2                !
 ! R2    R(1,3)                  1.46           estimate D2E/DX2                !
 ! R3    R(1,4)                  1.46           estimate D2E/DX2                !
 ! A1    A(2,1,3)              120.0            estimate D2E/DX2                !
 ! A2    A(2,1,4)              120.0            estimate D2E/DX2                !
 ! A3    A(3,1,4)              120.0            estimate D2E/DX2                !
 ! D1    D(2,1,4,3)            180.0            estimate D2E/DX2                !
 --------------------------------------------------------------------------------
 Trust Radius=3.00D-01 FncErr=1.00D-07 GrdErr=1.00D-07 EigMax=2.50D+02 EigMin=1.00D-04
 Number of steps in this run=     20 maximum allowed number of steps=    100.
 GradGradGradGradGradGradGradGradGradGradGradGradGradGradGradGradGradGrad

                          Input orientation:                          
 ---------------------------------------------------------------------
 Center     Atomic      Atomic             Coordinates (Angstroms)
 Number     Number       Type             X           Y           Z
 ---------------------------------------------------------------------
      1          5           0        1.010765    0.054593    0.000000
      2          9           0        0.280765    1.318990    0.000000
      3          9           0        0.280765   -1.209804    0.000000
      4          9           0        2.470765    0.054593    0.000000
 ---------------------------------------------------------------------
                    Distance matrix (angstroms):
                    1          2          3          4
     1  B    0.000000
     2  F    1.460000   0.000000
     3  F    1.460000   2.528794   0.000000
     4  F    1.460000   2.528794   2.528794   0.000000
 Stoichiometry    BF3(1-,2)
 Framework group  D3H[O(B),3C2(F)]
 Deg. of freedom     1
 Full point group                 D3H     NOp  12
 Largest Abelian subgroup         C2V     NOp   4
 Largest concise Abelian subgroup C2      NOp   2
                         Standard orientation:                         
 ---------------------------------------------------------------------
 Center     Atomic      Atomic             Coordinates (Angstroms)
 Number     Number       Type             X           Y           Z
 ---------------------------------------------------------------------
      1          5           0        0.000000    0.000000    0.000000
      2          9           0        0.000000    1.460000    0.000000
      3          9           0        1.264397   -0.730000    0.000000
      4          9           0       -1.264397   -0.730000   -0.000000
 ---------------------------------------------------------------------
 Rotational constants (GHZ):           8.3196130           8.3196130           4.1598065
 Standard basis: 3-21G (6D, 7F)
 There are    17 symmetry adapted cartesian basis functions of A1  symmetry.
 There are     2 symmetry adapted cartesian basis functions of A2  symmetry.
 There are    11 symmetry adapted cartesian basis functions of B1  symmetry.
 There are     6 symmetry adapted cartesian basis functions of B2  symmetry.
 There are    17 symmetry adapted basis functions of A1  symmetry.
 There are     2 symmetry adapted basis functions of A2  symmetry.
 There are    11 symmetry adapted basis functions of B1  symmetry.
 There are     6 symmetry adapted basis functions of B2  symmetry.
    36 basis functions,    60 primitive gaussians,    36 cartesian basis functions
    17 alpha electrons       16 beta electrons
       nuclear repulsion energy        99.7811167742 Hartrees.
 NAtoms=    4 NActive=    4 NUniq=    2 SFac= 4.00D+00 NAtFMM=   60 NAOKFM=F Big=F
 Integral buffers will be    131072 words long.
 Raffenetti 2 integral format.
 Two-electron integral symmetry is turned on.
 One-electron integrals computed using PRISM.
 NBasis=    36 RedAO= T EigKep=  1.17D-01  NBF=    17     2    11     6
 NBsUse=    36 1.00D-06 EigRej= -1.00D+00 NBFU=    17     2    11     6
 ExpMin= 1.24D-01 ExpMax= 4.14D+02 ExpMxC= 4.14D+02 IAcc=3 IRadAn=         5 AccDes= 0.00D+00
 Harris functional with IExCor=  205 and IRadAn=       5 diagonalized for initial guess.
 HarFok:  IExCor=  205 AccDes= 0.00D+00 IRadAn=         5 IDoV= 1 UseB2=F ITyADJ=14
 ICtDFT=  3500011 ScaDFX=  1.000000  1.000000  1.000000  1.000000
 FoFCou: FMM=F IPFlag=           0 FMFlag=      100000 FMFlg1=           0
         NFxFlg=           0 DoJE=T BraDBF=F KetDBF=T FulRan=T
         wScrn=  0.000000 ICntrl=       500 IOpCl=  0 I1Cent=   200000004 NGrid=           0
         NMat0=    1 NMatS0=      1 NMatT0=    0 NMatD0=    1 NMtDS0=    0 NMtDT0=    0
 Petite list used in FoFCou.
 Initial guess orbital symmetries:
 Alpha Orbitals:
       Occupied  (A1') (E') (E') (A1') (A1') (E') (E') (A1') (E')
                 (E') (A2") (E') (E') (E") (E") (A2') (A2")
       Virtual   (A1') (E') (E') (A2") (E') (E') (A1') (E") (E")
                 (A2') (E') (E') (E') (E') (A2") (A1') (E') (E')
                 (A1')
 Beta  Orbitals:
       Occupied  (A1') (E') (E') (A1') (A1') (E') (E') (A1') (E')
                 (E') (A2") (E') (E') (E") (E") (A2')
       Virtual   (A2") (A1') (E') (E') (A2") (E') (E') (A1') (E")
                 (E") (A2') (E') (E') (E') (E') (A2") (A1') (E')
                 (E') (A1')
 The electronic state of the initial guess is 2-A2".
 Initial guess <Sx>= 0.0000 <Sy>= 0.0000 <Sz>= 0.5000 <S**2>= 0.7500 S= 0.5000
 Keep R1 and R2 ints in memory in symmetry-blocked form, NReq=1030480.
 Requested convergence on RMS density matrix=1.00D-08 within 128 cycles.
 Requested convergence on MAX density matrix=1.00D-06.
 Requested convergence on             energy=1.00D-06.
 No special actions if energy rises.
 SCF Done:  E(UHF) =  -321.324355772     A.U. after   12 cycles
            NFock= 12  Conv=0.16D-08     -V/T= 2.0036
 <Sx>= 0.0000 <Sy>= 0.0000 <Sz>= 0.5000 <S**2>= 0.7588 S= 0.5044
 <L.S>= 0.000000000000E+00
 Annihilation of the first spin contaminant:
 S**2 before annihilation     0.7588,   after     0.7500

 **********************************************************************

            Population analysis using the SCF Density.

 **********************************************************************

 Orbital symmetries:
 Alpha Orbitals:
       Occupied  (A1') (E') (E') (A1') (A1') (E') (E') (A1') (A2")
                 (E') (E') (E") (E") (E') (E') (A2') (A2")
       Virtual   (A1') (E') (E') (A2") (E') (E') (A1') (E") (E")
                 (A2') (E') (E') (A2") (E') (E') (A1') (E') (E')
                 (A1')
 Beta  Orbitals:
       Occupied  (A1') (E') (E') (A1') (A1') (E') (E') (A1') (E')
                 (E') (A2") (E') (E') (E") (E") (A2')
       Virtual   (A2") (A1') (E') (E') (A2") (E') (E') (A1') (E")
                 (E") (A2') (E') (E') (A2") (E') (E') (A1') (E')
                 (E') (A1')
 The electronic state is 2-A2".
 Alpha  occ. eigenvalues --  -25.86821 -25.86814 -25.86814  -7.37837  -1.29707
 Alpha  occ. eigenvalues --   -1.27004  -1.27004  -0.48952  -0.42091  -0.41679
 Alpha  occ. eigenvalues --   -0.41679  -0.36683  -0.36683  -0.33699  -0.33699
 Alpha  occ. eigenvalues --   -0.32515   0.07389
 Alpha virt. eigenvalues --    0.46698   0.65356   0.65356   0.82774   1.01965
 Alpha virt. eigenvalues --    1.01965   1.11099   2.46620   2.46620   2.55110
 Alpha virt. eigenvalues --    2.59845   2.59845   2.68137   2.71545   2.71545
 Alpha virt. eigenvalues --    2.72154   4.18713   4.18713   4.20527
  Beta  occ. eigenvalues --  -25.86575 -25.86568 -25.86568  -7.36133  -1.28985
  Beta  occ. eigenvalues --   -1.26562  -1.26562  -0.46897  -0.41807  -0.41807
  Beta  occ. eigenvalues --   -0.37647  -0.34284  -0.34284  -0.32973  -0.32973
  Beta  occ. eigenvalues --   -0.32440
  Beta virt. eigenvalues --    0.49343   0.54119   0.66901   0.66901   0.94499
  Beta virt. eigenvalues --    1.03951   1.03951   1.14972   2.49239   2.49239
  Beta virt. eigenvalues --    2.55224   2.60023   2.60023   2.70250   2.71113
  Beta virt. eigenvalues --    2.71113   2.72024   4.19108   4.19108   4.21829
     Alpha Molecular Orbital Coefficients:
                           1         2         3         4         5
                       (A1')--O   (E')--O   (E')--O  (A1')--O  (A1')--O
     Eigenvalues --   -25.86821 -25.86814 -25.86814  -7.37837  -1.29707
   1 1   B  1S         -0.00072   0.00000  -0.00000   0.98680  -0.06737
   2        2S          0.00092   0.00000   0.00000   0.08971   0.06907
   3        2PX         0.00000   0.00316   0.00000   0.00000   0.00000
   4        2PY        -0.00000   0.00000   0.00316  -0.00000  -0.00000
   5        2PZ         0.00000   0.00000   0.00000   0.00000   0.00000
   6        3S          0.01151   0.00000   0.00000  -0.02264   0.06073
   7        3PX         0.00000   0.00926   0.00000   0.00000   0.00000
   8        3PY        -0.00000   0.00000   0.00926   0.00000   0.00000
   9        3PZ         0.00000   0.00000   0.00000   0.00000   0.00000
  10 2   F  1S          0.56693   0.00000   0.80176   0.00008  -0.14081
  11        2S          0.05560   0.00000   0.07851   0.00198   0.13449
  12        2PX         0.00000   0.00085   0.00000   0.00000   0.00000
  13        2PY        -0.00143   0.00000  -0.00164  -0.00159  -0.02358
  14        2PZ         0.00000   0.00000   0.00000   0.00000   0.00000
  15        3S         -0.01898   0.00000  -0.02719  -0.00321   0.44162
  16        3PX         0.00000  -0.00295   0.00000   0.00000   0.00000
  17        3PY         0.00329   0.00000   0.00349   0.00760  -0.03353
  18        3PZ         0.00000   0.00000   0.00000   0.00000   0.00000
  19 3   F  1S          0.56693   0.69434  -0.40088   0.00008  -0.14081
  20        2S          0.05560   0.06799  -0.03926   0.00198   0.13449
  21        2PX        -0.00124  -0.00102   0.00108  -0.00138  -0.02042
  22        2PY         0.00071   0.00108   0.00022   0.00080   0.01179
  23        2PZ         0.00000   0.00000   0.00000   0.00000   0.00000
  24        3S         -0.01898  -0.02355   0.01359  -0.00321   0.44162
  25        3PX         0.00285   0.00188  -0.00279   0.00658  -0.02904
  26        3PY        -0.00164  -0.00279  -0.00134  -0.00380   0.01676
  27        3PZ         0.00000   0.00000   0.00000   0.00000   0.00000
  28 4   F  1S          0.56693  -0.69434  -0.40088   0.00008  -0.14081
  29        2S          0.05560  -0.06799  -0.03926   0.00198   0.13449
  30        2PX         0.00124  -0.00102  -0.00108   0.00138   0.02042
  31        2PY         0.00071  -0.00108   0.00022   0.00080   0.01179
  32        2PZ         0.00000   0.00000   0.00000   0.00000   0.00000
  33        3S         -0.01898   0.02355   0.01359  -0.00321   0.44162
  34        3PX        -0.00285   0.00188   0.00279  -0.00658   0.02904
  35        3PY        -0.00164   0.00279  -0.00134  -0.00380   0.01676
  36        3PZ         0.00000   0.00000   0.00000   0.00000   0.00000
                           6         7         8         9        10
                        (E')--O   (E')--O  (A1')--O  (A2")--O   (E')--O
     Eigenvalues --    -1.27004  -1.27004  -0.48952  -0.42091  -0.41679
   1 1   B  1S          0.00000  -0.00000   0.14738   0.00000   0.00000
   2        2S          0.00000  -0.00000  -0.22174   0.00000  -0.00000
   3        2PX         0.06724   0.00000   0.00000   0.00000   0.00000
   4        2PY         0.00000   0.06724   0.00000   0.00000  -0.22240
   5        2PZ         0.00000   0.00000   0.00000   0.16840   0.00000
   6        3S          0.00000   0.00000  -0.21713   0.00000   0.00000
   7        3PX         0.00768   0.00000   0.00000   0.00000   0.00000
   8        3PY         0.00000   0.00768   0.00000   0.00000  -0.09345
   9        3PZ         0.00000   0.00000   0.00000   0.18975   0.00000
  10 2   F  1S          0.00000  -0.20534  -0.04029   0.00000  -0.03219
  11        2S          0.00000   0.19629   0.03958   0.00000   0.02626
  12        2PX         0.00417   0.00000   0.00000   0.00000   0.00000
  13        2PY         0.00000  -0.02516   0.23892   0.00000   0.28915
  14        2PZ         0.00000   0.00000   0.00000   0.28079   0.00000
  15        3S          0.00000   0.65222   0.17204   0.00000   0.16174
  16        3PX         0.00326   0.00000   0.00000   0.00000   0.00000
  17        3PY         0.00000  -0.03468   0.27422   0.00000   0.31901
  18        3PZ         0.00000   0.00000   0.00000   0.29431   0.00000
  19 3   F  1S         -0.17783   0.10267  -0.04029   0.00000   0.01609
  20        2S          0.16999  -0.09815   0.03958   0.00000  -0.01313
  21        2PX        -0.01783   0.01270   0.20691   0.00000  -0.23562
  22        2PY         0.01270  -0.00316  -0.11946   0.00000  -0.11895
  23        2PZ         0.00000   0.00000   0.00000   0.28079   0.00000
  24        3S          0.56484  -0.32611   0.17204   0.00000  -0.08087
  25        3PX        -0.02520   0.01643   0.23748   0.00000  -0.26320
  26        3PY         0.01643  -0.00623  -0.13711   0.00000  -0.13686
  27        3PZ         0.00000   0.00000   0.00000   0.29431   0.00000
  28 4   F  1S          0.17783   0.10267  -0.04029   0.00000   0.01609
  29        2S         -0.16999  -0.09815   0.03958   0.00000  -0.01313
  30        2PX        -0.01783  -0.01270  -0.20691   0.00000   0.23562
  31        2PY        -0.01270  -0.00316  -0.11946   0.00000  -0.11895
  32        2PZ         0.00000   0.00000   0.00000   0.28079   0.00000
  33        3S         -0.56484  -0.32611   0.17204   0.00000  -0.08087
  34        3PX        -0.02520  -0.01643  -0.23748   0.00000   0.26320
  35        3PY        -0.01643  -0.00623  -0.13711   0.00000  -0.13686
  36        3PZ         0.00000   0.00000   0.00000   0.29431   0.00000
                          11        12        13        14        15
                        (E')--O   (E")--O   (E")--O   (E')--O   (E')--O
     Eigenvalues --    -0.41679  -0.36683  -0.36683  -0.33699  -0.33699
   1 1   B  1S          0.00000   0.00000   0.00000   0.00000   0.00000
   2        2S          0.00000   0.00000   0.00000   0.00000  -0.00000
   3        2PX         0.22240   0.00000   0.00000  -0.11181   0.00000
   4        2PY         0.00000   0.00000   0.00000   0.00000  -0.11181
   5        2PZ         0.00000   0.00000   0.00000   0.00000   0.00000
   6        3S          0.00000   0.00000   0.00000   0.00000  -0.00000
   7        3PX         0.09345   0.00000   0.00000   0.12435   0.00000
   8        3PY         0.00000   0.00000   0.00000   0.00000   0.12435
   9        3PZ         0.00000   0.00000   0.00000   0.00000   0.00000
  10 2   F  1S          0.00000   0.00000   0.00000   0.00000  -0.00705
  11        2S          0.00000   0.00000   0.00000   0.00000   0.02037
  12        2PX         0.25498   0.00000   0.00000   0.33343   0.00000
  13        2PY         0.00000   0.00000   0.00000   0.00000   0.26266
  14        2PZ         0.00000   0.00000   0.44179   0.00000   0.00000
  15        3S          0.00000   0.00000   0.00000   0.00000  -0.01788
  16        3PX         0.28881   0.00000   0.00000   0.37732   0.00000
  17        3PY         0.00000   0.00000   0.00000   0.00000   0.31990
  18        3PZ         0.00000   0.00000   0.50472   0.00000   0.00000
  19 3   F  1S          0.02788   0.00000   0.00000  -0.00611   0.00352
  20        2S         -0.02274   0.00000   0.00000   0.01764  -0.01019
  21        2PX        -0.15312   0.00000   0.00000   0.28035   0.03064
  22        2PY         0.23562   0.00000   0.00000   0.03064   0.31573
  23        2PZ         0.00000   0.38261  -0.22090   0.00000   0.00000
  24        3S         -0.14007   0.00000   0.00000  -0.01549   0.00894
  25        3PX        -0.16706   0.00000   0.00000   0.33426   0.02486
  26        3PY         0.26320   0.00000   0.00000   0.02486   0.36297
  27        3PZ         0.00000   0.43710  -0.25236   0.00000   0.00000
  28 4   F  1S         -0.02788   0.00000   0.00000   0.00611   0.00352
  29        2S          0.02274   0.00000   0.00000  -0.01764  -0.01019
  30        2PX        -0.15312   0.00000   0.00000   0.28035  -0.03064
  31        2PY        -0.23562   0.00000   0.00000  -0.03064   0.31573
  32        2PZ         0.00000  -0.38261  -0.22090   0.00000   0.00000
  33        3S          0.14007   0.00000   0.00000   0.01549   0.00894
  34        3PX        -0.16706   0.00000   0.00000   0.33426  -0.02486
  35        3PY        -0.26320   0.00000   0.00000  -0.02486   0.36297
  36        3PZ         0.00000  -0.43710  -0.25236   0.00000   0.00000
                          16        17        18        19        20
                       (A2')--O  (A2")--O  (A1')--V   (E')--V   (E')--V
     Eigenvalues --    -0.32515   0.07389   0.46698   0.65356   0.65356
   1 1   B  1S          0.00000   0.00000  -0.18437   0.00000  -0.00000
   2        2S          0.00000   0.00000  -0.05958   0.00000   0.00000
   3        2PX        -0.00000   0.00000   0.00000   0.13496   0.00000
   4        2PY         0.00000   0.00000  -0.00000   0.00000   0.13496
   5        2PZ         0.00000   0.54610   0.00000   0.00000   0.00000
   6        3S          0.00000   0.00000   1.38589   0.00000   0.00000
   7        3PX         0.00000   0.00000   0.00000   1.34571   0.00000
   8        3PY         0.00000   0.00000  -0.00000   0.00000   1.34571
   9        3PZ         0.00000   0.60538   0.00000   0.00000   0.00000
  10 2   F  1S          0.00000   0.00000   0.05807   0.00000   0.07728
  11        2S          0.00000   0.00000  -0.03663   0.00000  -0.03101
  12        2PX         0.31214   0.00000   0.00000  -0.16842   0.00000
  13        2PY         0.00000   0.00000   0.16962   0.00000   0.08605
  14        2PZ         0.00000  -0.16696   0.00000   0.00000   0.00000
  15        3S          0.00000   0.00000  -0.41871   0.00000  -0.70936
  16        3PX         0.36010   0.00000   0.00000  -0.26616   0.00000
  17        3PY         0.00000   0.00000   0.29978   0.00000   0.22939
  18        3PZ         0.00000  -0.23259   0.00000   0.00000   0.00000
  19 3   F  1S         -0.00000   0.00000   0.05807   0.06693  -0.03864
  20        2S          0.00000   0.00000  -0.03663  -0.02685   0.01550
  21        2PX        -0.15607   0.00000   0.14690   0.02244  -0.11019
  22        2PY        -0.27032   0.00000  -0.08481  -0.11019  -0.10480
  23        2PZ         0.00000  -0.16696   0.00000   0.00000   0.00000
  24        3S         -0.00000   0.00000  -0.41871  -0.61432   0.35468
  25        3PX        -0.18005   0.00000   0.25961   0.10550  -0.21458
  26        3PY        -0.31185   0.00000  -0.14989  -0.21458  -0.14228
  27        3PZ         0.00000  -0.23259   0.00000   0.00000   0.00000
  28 4   F  1S          0.00000   0.00000   0.05807  -0.06693  -0.03864
  29        2S         -0.00000   0.00000  -0.03663   0.02685   0.01550
  30        2PX        -0.15607   0.00000  -0.14690   0.02244   0.11019
  31        2PY         0.27032   0.00000  -0.08481   0.11019  -0.10480
  32        2PZ         0.00000  -0.16696   0.00000   0.00000   0.00000
  33        3S          0.00000   0.00000  -0.41871   0.61432   0.35468
  34        3PX        -0.18005   0.00000  -0.25961   0.10550   0.21458
  35        3PY         0.31185   0.00000  -0.14989   0.21458  -0.14228
  36        3PZ         0.00000  -0.23259   0.00000   0.00000   0.00000
                          21        22        23        24        25
                       (A2")--V   (E')--V   (E')--V  (A1')--V   (E")--V
     Eigenvalues --     0.82774   1.01965   1.01965   1.11099   2.46620
   1 1   B  1S          0.00000   0.00000   0.00000  -0.10024   0.00000
   2        2S          0.00000  -0.00000   0.00000   1.62201   0.00000
   3        2PX         0.00000   0.00000   1.26579   0.00000   0.00000
   4        2PY         0.00000   1.26579   0.00000   0.00000   0.00000
   5        2PZ        -1.05279   0.00000   0.00000   0.00000   0.00000
   6        3S          0.00000   0.00000   0.00000  -1.36976   0.00000
   7        3PX         0.00000   0.00000  -0.78026   0.00000   0.00000
   8        3PY         0.00000  -0.78026   0.00000  -0.00000   0.00000
   9        3PZ         1.11450   0.00000   0.00000   0.00000   0.00000
  10 2   F  1S          0.00000   0.01932   0.00000  -0.00012   0.00000
  11        2S          0.00000  -0.04009   0.00000  -0.02032   0.00000
  12        2PX         0.00000   0.00000  -0.02788   0.00000   0.00000
  13        2PY         0.00000   0.22697   0.00000   0.15558   0.00000
  14        2PZ        -0.02591   0.00000   0.00000   0.00000   0.00000
  15        3S          0.00000   0.05920   0.00000   0.16804   0.00000
  16        3PX         0.00000   0.00000   0.03138   0.00000   0.00000
  17        3PY         0.00000   0.30383   0.00000   0.08498   0.00000
  18        3PZ        -0.10211   0.00000   0.00000   0.00000   0.00000
  19 3   F  1S          0.00000  -0.00966   0.01674  -0.00012   0.00000
  20        2S          0.00000   0.02005  -0.03472  -0.02032   0.00000
  21        2PX         0.00000  -0.11036   0.16326   0.13473   0.00000
  22        2PY         0.00000   0.03583  -0.11036  -0.07779   0.00000
  23        2PZ        -0.02591   0.00000   0.00000   0.00000   0.71484
  24        3S          0.00000  -0.02960   0.05127   0.16804   0.00000
  25        3PX         0.00000  -0.11797   0.23571   0.07360   0.00000
  26        3PY         0.00000   0.09949  -0.11797  -0.04249   0.00000
  27        3PZ        -0.10211   0.00000   0.00000   0.00000  -0.68484
  28 4   F  1S          0.00000  -0.00966  -0.01674  -0.00012   0.00000
  29        2S          0.00000   0.02005   0.03472  -0.02032   0.00000
  30        2PX         0.00000   0.11036   0.16326  -0.13473   0.00000
  31        2PY         0.00000   0.03583   0.11036  -0.07779   0.00000
  32        2PZ        -0.02591   0.00000   0.00000   0.00000  -0.71484
  33        3S          0.00000  -0.02960  -0.05127   0.16804   0.00000
  34        3PX         0.00000   0.11797   0.23571  -0.07360   0.00000
  35        3PY         0.00000   0.09949   0.11797  -0.04249   0.00000
  36        3PZ        -0.10211   0.00000   0.00000   0.00000   0.68484
                          26        27        28        29        30
                        (E")--V  (A2')--V   (E')--V   (E')--V  (A2")--V
     Eigenvalues --     2.46620   2.55110   2.59845   2.59845   2.68137
   1 1   B  1S          0.00000   0.00000   0.00000   0.00000   0.00000
   2        2S          0.00000   0.00000  -0.00000   0.00000   0.00000
   3        2PX         0.00000   0.00000   0.00000  -0.05270   0.00000
   4        2PY         0.00000   0.00000  -0.05270   0.00000   0.00000
   5        2PZ        -0.00000   0.00000   0.00000   0.00000  -0.04360
   6        3S          0.00000   0.00000   0.00000   0.00000   0.00000
   7        3PX         0.00000   0.00000   0.00000  -0.35258   0.00000
   8        3PY         0.00000   0.00000  -0.35258   0.00000   0.00000
   9        3PZ        -0.00000   0.00000   0.00000   0.00000  -0.36447
  10 2   F  1S          0.00000   0.00000  -0.03583   0.00000   0.00000
  11        2S          0.00000   0.00000   0.18647   0.00000   0.00000
  12        2PX         0.00000   0.58626   0.00000  -0.81535   0.00000
  13        2PY         0.00000   0.00000  -0.00240   0.00000   0.00000
  14        2PZ         0.82543   0.00000   0.00000   0.00000  -0.58693
  15        3S          0.00000   0.00000   0.02931   0.00000   0.00000
  16        3PX         0.00000  -0.56869   0.00000   0.85206   0.00000
  17        3PY         0.00000   0.00000  -0.04749   0.00000   0.00000
  18        3PZ        -0.79079   0.00000   0.00000   0.00000   0.65079
  19 3   F  1S          0.00000   0.00000   0.01792  -0.03103   0.00000
  20        2S          0.00000  -0.00000  -0.09323   0.16148   0.00000
  21        2PX         0.00000  -0.29313  -0.35202  -0.20564   0.00000
  22        2PY         0.00000  -0.50771  -0.61211  -0.35202   0.00000
  23        2PZ        -0.41272   0.00000   0.00000   0.00000  -0.58693
  24        3S          0.00000  -0.00000  -0.01465   0.02538   0.00000
  25        3PX         0.00000   0.28435   0.38952   0.17740   0.00000
  26        3PY         0.00000   0.49250   0.62717   0.38952   0.00000
  27        3PZ         0.39539   0.00000   0.00000   0.00000   0.65079
  28 4   F  1S          0.00000  -0.00000   0.01792   0.03103   0.00000
  29        2S          0.00000   0.00000  -0.09323  -0.16148   0.00000
  30        2PX         0.00000  -0.29313   0.35202  -0.20564   0.00000
  31        2PY         0.00000   0.50771  -0.61211   0.35202   0.00000
  32        2PZ        -0.41272   0.00000   0.00000   0.00000  -0.58693
  33        3S          0.00000   0.00000  -0.01465  -0.02538   0.00000
  34        3PX         0.00000   0.28435  -0.38952   0.17740   0.00000
  35        3PY         0.00000  -0.49250   0.62717  -0.38952   0.00000
  36        3PZ         0.39539   0.00000   0.00000   0.00000   0.65079
                          31        32        33        34        35
                        (E')--V   (E')--V  (A1')--V   (E')--V   (E')--V
     Eigenvalues --     2.71545   2.71545   2.72154   4.18713   4.18713
   1 1   B  1S          0.00000   0.00000  -0.00411   0.00000  -0.00000
   2        2S         -0.00000   0.00000   0.59724   0.00000   0.00000
   3        2PX         0.00000   0.46909   0.00000  -0.28511   0.00000
   4        2PY         0.46909   0.00000   0.00000   0.00000  -0.28511
   5        2PZ         0.00000   0.00000   0.00000   0.00000   0.00000
   6        3S          0.00000   0.00000  -0.03899   0.00000   0.00000
   7        3PX         0.00000  -0.12974   0.00000  -0.58067   0.00000
   8        3PY        -0.12974   0.00000  -0.00000   0.00000  -0.58067
   9        3PZ         0.00000   0.00000   0.00000   0.00000   0.00000
  10 2   F  1S          0.02499   0.00000   0.02692   0.00000   0.08592
  11        2S         -0.13846   0.00000  -0.15279   0.00000  -1.26698
  12        2PX         0.00000  -0.02477   0.00000  -0.16808   0.00000
  13        2PY        -0.82574   0.00000  -0.57432   0.00000   0.13672
  14        2PZ         0.00000   0.00000   0.00000   0.00000   0.00000
  15        3S          0.05108   0.00000   0.05503   0.00000   1.43101
  16        3PX         0.00000   0.01495   0.00000   0.31092   0.00000
  17        3PY         0.94461   0.00000   0.66412   0.00000  -0.30849
  18        3PZ         0.00000   0.00000   0.00000   0.00000   0.00000
  19 3   F  1S         -0.01250   0.02164   0.02692   0.07441  -0.04296
  20        2S          0.06923  -0.11991  -0.15279  -1.09723   0.63349
  21        2PX         0.34683  -0.62550  -0.49737   0.06052  -0.13198
  22        2PY        -0.22501   0.34683   0.28716  -0.13198  -0.09188
  23        2PZ         0.00000   0.00000   0.00000   0.00000   0.00000
  24        3S         -0.02554   0.04424   0.05503   1.23929  -0.71551
  25        3PX        -0.40255   0.71220   0.57515  -0.15364   0.26821
  26        3PY         0.24737  -0.40255  -0.33206   0.26821   0.15607
  27        3PZ         0.00000   0.00000   0.00000   0.00000   0.00000
  28 4   F  1S         -0.01250  -0.02164   0.02692  -0.07441  -0.04296
  29        2S          0.06923   0.11991  -0.15279   1.09723   0.63349
  30        2PX        -0.34683  -0.62550   0.49737   0.06052   0.13198
  31        2PY        -0.22501  -0.34683   0.28716   0.13198  -0.09188
  32        2PZ         0.00000   0.00000   0.00000   0.00000   0.00000
  33        3S         -0.02554  -0.04424   0.05503  -1.23929  -0.71551
  34        3PX         0.40255   0.71220  -0.57515  -0.15364  -0.26821
  35        3PY         0.24737   0.40255  -0.33206  -0.26821   0.15607
  36        3PZ         0.00000   0.00000   0.00000   0.00000   0.00000
                          36
                       (A1')--V
     Eigenvalues --     4.20527
   1 1   B  1S          0.05618
   2        2S         -0.17540
   3        2PX         0.00000
   4        2PY        -0.00000
   5        2PZ         0.00000
   6        3S         -0.65974
   7        3PX         0.00000
   8        3PY        -0.00000
   9        3PZ         0.00000
  10 2   F  1S          0.06170
  11        2S         -0.89836
  12        2PX         0.00000
  13        2PY         0.14625
  14        2PZ         0.00000
  15        3S          0.97748
  16        3PX         0.00000
  17        3PY        -0.29714
  18        3PZ         0.00000
  19 3   F  1S          0.06170
  20        2S         -0.89836
  21        2PX         0.12666
  22        2PY        -0.07313
  23        2PZ         0.00000
  24        3S          0.97748
  25        3PX        -0.25733
  26        3PY         0.14857
  27        3PZ         0.00000
  28 4   F  1S          0.06170
  29        2S         -0.89836
  30        2PX        -0.12666
  31        2PY        -0.07313
  32        2PZ         0.00000
  33        3S          0.97748
  34        3PX         0.25733
  35        3PY         0.14857
  36        3PZ         0.00000
     Beta Molecular Orbital Coefficients:
                           1         2         3         4         5
                       (A1')--O   (E')--O   (E')--O  (A1')--O  (A1')--O
     Eigenvalues --   -25.86575 -25.86568 -25.86568  -7.36133  -1.28985
   1 1   B  1S         -0.00072   0.00000   0.00000   0.98761  -0.06278
   2        2S          0.00092  -0.00000   0.00000   0.08667   0.05811
   3        2PX         0.00000   0.00000   0.00316   0.00000   0.00000
   4        2PY         0.00000   0.00316   0.00000   0.00000  -0.00000
   5        2PZ         0.00000   0.00000   0.00000   0.00000   0.00000
   6        3S          0.01152  -0.00000   0.00000  -0.02396   0.04974
   7        3PX         0.00000   0.00000   0.00927   0.00000   0.00000
   8        3PY         0.00000   0.00927   0.00000  -0.00000   0.00000
   9        3PZ         0.00000   0.00000   0.00000   0.00000   0.00000
  10 2   F  1S          0.56695   0.80178   0.00000   0.00002  -0.14162
  11        2S          0.05554   0.07844   0.00000   0.00166   0.13380
  12        2PX         0.00000   0.00000   0.00085   0.00000   0.00000
  13        2PY        -0.00144  -0.00165   0.00000  -0.00146  -0.02568
  14        2PZ         0.00000   0.00000   0.00000   0.00000   0.00000
  15        3S         -0.01897  -0.02718   0.00000  -0.00223   0.44833
  16        3PX         0.00000   0.00000  -0.00295   0.00000   0.00000
  17        3PY         0.00328   0.00348   0.00000   0.00694  -0.03629
  18        3PZ         0.00000   0.00000   0.00000   0.00000   0.00000
  19 3   F  1S          0.56695  -0.40089   0.69436   0.00002  -0.14162
  20        2S          0.05554  -0.03922   0.06793   0.00166   0.13380
  21        2PX        -0.00124   0.00108  -0.00103  -0.00127  -0.02224
  22        2PY         0.00072   0.00022   0.00108   0.00073   0.01284
  23        2PZ         0.00000   0.00000   0.00000   0.00000   0.00000
  24        3S         -0.01897   0.01359  -0.02354  -0.00223   0.44833
  25        3PX         0.00284  -0.00279   0.00187   0.00601  -0.03143
  26        3PY        -0.00164  -0.00134  -0.00279  -0.00347   0.01815
  27        3PZ         0.00000   0.00000   0.00000   0.00000   0.00000
  28 4   F  1S          0.56695  -0.40089  -0.69436   0.00002  -0.14162
  29        2S          0.05554  -0.03922  -0.06793   0.00166   0.13380
  30        2PX         0.00124  -0.00108  -0.00103   0.00127   0.02224
  31        2PY         0.00072   0.00022  -0.00108   0.00073   0.01284
  32        2PZ         0.00000   0.00000   0.00000   0.00000   0.00000
  33        3S         -0.01897   0.01359   0.02354  -0.00223   0.44833
  34        3PX        -0.00284   0.00279   0.00187  -0.00601   0.03143
  35        3PY        -0.00164  -0.00134   0.00279  -0.00347   0.01815
  36        3PZ         0.00000   0.00000   0.00000   0.00000   0.00000
                           6         7         8         9        10
                        (E')--O   (E')--O  (A1')--O   (E')--O   (E')--O
     Eigenvalues --    -1.26562  -1.26562  -0.46897  -0.41807  -0.41807
   1 1   B  1S          0.00000  -0.00000   0.12964   0.00000   0.00000
   2        2S          0.00000  -0.00000  -0.19187   0.00000  -0.00000
   3        2PX         0.06390   0.00000   0.00000   0.21019   0.00000
   4        2PY         0.00000   0.06390   0.00000   0.00000  -0.21019
   5        2PZ         0.00000   0.00000   0.00000   0.00000   0.00000
   6        3S          0.00000   0.00000  -0.13876   0.00000   0.00000
   7        3PX         0.00783   0.00000   0.00000   0.07091   0.00000
   8        3PY         0.00000   0.00783   0.00000   0.00000  -0.07091
   9        3PZ         0.00000   0.00000   0.00000   0.00000   0.00000
  10 2   F  1S          0.00000  -0.20522  -0.03518   0.00000  -0.03178
  11        2S          0.00000   0.19512   0.03698   0.00000   0.02656
  12        2PX         0.00415   0.00000   0.00000   0.22970   0.00000
  13        2PY         0.00000  -0.02940   0.25414   0.00000   0.31577
  14        2PZ         0.00000   0.00000   0.00000   0.00000   0.00000
  15        3S          0.00000   0.65372   0.13967   0.00000   0.15190
  16        3PX         0.00325   0.00000   0.00000   0.26272   0.00000
  17        3PY         0.00000  -0.03761   0.29863   0.00000   0.34979
  18        3PZ         0.00000   0.00000   0.00000   0.00000   0.00000
  19 3   F  1S         -0.17773   0.10261  -0.03518   0.02752   0.01589
  20        2S          0.16898  -0.09756   0.03698  -0.02300  -0.01328
  21        2PX        -0.02101   0.01453   0.22010  -0.17940  -0.23620
  22        2PY         0.01453  -0.00424  -0.12707   0.23620  -0.09333
  23        2PZ         0.00000   0.00000   0.00000   0.00000   0.00000
  24        3S          0.56614  -0.32686   0.13967  -0.13155  -0.07595
  25        3PX        -0.02740   0.01769   0.25862  -0.19666  -0.26522
  26        3PY         0.01769  -0.00697  -0.14931   0.26522  -0.10960
  27        3PZ         0.00000   0.00000   0.00000   0.00000   0.00000
  28 4   F  1S          0.17773   0.10261  -0.03518  -0.02752   0.01589
  29        2S         -0.16898  -0.09756   0.03698   0.02300  -0.01328
  30        2PX        -0.02101  -0.01453  -0.22010  -0.17940   0.23620
  31        2PY        -0.01453  -0.00424  -0.12707  -0.23620  -0.09333
  32        2PZ         0.00000   0.00000   0.00000   0.00000   0.00000
  33        3S         -0.56614  -0.32686   0.13967   0.13155  -0.07595
  34        3PX        -0.02740  -0.01769  -0.25862  -0.19666   0.26522
  35        3PY        -0.01769  -0.00697  -0.14931  -0.26522  -0.10960
  36        3PZ         0.00000   0.00000   0.00000   0.00000   0.00000
                          11        12        13        14        15
                       (A2")--O   (E')--O   (E')--O   (E")--O   (E")--O
     Eigenvalues --    -0.37647  -0.34284  -0.34284  -0.32973  -0.32973
   1 1   B  1S          0.00000   0.00000   0.00000   0.00000   0.00000
   2        2S          0.00000   0.00000  -0.00000   0.00000   0.00000
   3        2PX         0.00000  -0.08355   0.00000   0.00000   0.00000
   4        2PY         0.00000   0.00000  -0.08355   0.00000   0.00000
   5        2PZ         0.09969   0.00000   0.00000   0.00000   0.00000
   6        3S          0.00000   0.00000  -0.00000   0.00000   0.00000
   7        3PX         0.00000   0.13579   0.00000   0.00000   0.00000
   8        3PY         0.00000   0.00000   0.13579   0.00000   0.00000
   9        3PZ         0.16945   0.00000   0.00000   0.00000   0.00000
  10 2   F  1S          0.00000   0.00000  -0.00440   0.00000   0.00000
  11        2S          0.00000   0.00000   0.01740   0.00000   0.00000
  12        2PX         0.00000   0.35135   0.00000   0.00000   0.00000
  13        2PY         0.00000   0.00000   0.24245   0.00000   0.00000
  14        2PZ         0.28607   0.00000   0.00000   0.43199   0.00000
  15        3S          0.00000   0.00000  -0.03224   0.00000   0.00000
  16        3PX         0.00000   0.39753   0.00000   0.00000   0.00000
  17        3PY         0.00000   0.00000   0.29531   0.00000   0.00000
  18        3PZ         0.31422   0.00000   0.00000   0.51405   0.00000
  19 3   F  1S          0.00000  -0.00381   0.00220   0.00000   0.00000
  20        2S          0.00000   0.01507  -0.00870   0.00000   0.00000
  21        2PX         0.00000   0.26968   0.04716   0.00000   0.00000
  22        2PY         0.00000   0.04716   0.32413   0.00000   0.00000
  23        2PZ         0.28607   0.00000   0.00000  -0.21600   0.37412
  24        3S          0.00000  -0.02792   0.01612   0.00000   0.00000
  25        3PX         0.00000   0.32086   0.04427   0.00000   0.00000
  26        3PY         0.00000   0.04427   0.37198   0.00000   0.00000
  27        3PZ         0.31422   0.00000   0.00000  -0.25702   0.44518
  28 4   F  1S          0.00000   0.00381   0.00220   0.00000   0.00000
  29        2S          0.00000  -0.01507  -0.00870   0.00000   0.00000
  30        2PX         0.00000   0.26968  -0.04716   0.00000   0.00000
  31        2PY         0.00000  -0.04716   0.32413   0.00000   0.00000
  32        2PZ         0.28607   0.00000   0.00000  -0.21600  -0.37412
  33        3S          0.00000   0.02792   0.01612   0.00000   0.00000
  34        3PX         0.00000   0.32086  -0.04427   0.00000   0.00000
  35        3PY         0.00000  -0.04427   0.37198   0.00000   0.00000
  36        3PZ         0.31422   0.00000   0.00000  -0.25702  -0.44518
                          16        17        18        19        20
                       (A2')--O  (A2")--V  (A1')--V   (E')--V   (E')--V
     Eigenvalues --    -0.32440   0.49343   0.54119   0.66901   0.66901
   1 1   B  1S          0.00000   0.00000  -0.19001   0.00000  -0.00000
   2        2S          0.00000   0.00000  -0.09962   0.00000   0.00000
   3        2PX         0.00000   0.00000   0.00000   0.10935   0.00000
   4        2PY         0.00000   0.00000  -0.00000   0.00000   0.10935
   5        2PZ         0.00000   0.28922   0.00000   0.00000   0.00000
   6        3S          0.00000   0.00000   1.43752   0.00000   0.00000
   7        3PX         0.00000   0.00000   0.00000   1.36297   0.00000
   8        3PY         0.00000   0.00000  -0.00000   0.00000   1.36297
   9        3PZ         0.00000   0.86586   0.00000   0.00000   0.00000
  10 2   F  1S          0.00000   0.00000   0.05937   0.00000   0.07712
  11        2S          0.00000   0.00000  -0.04317   0.00000  -0.03151
  12        2PX         0.31181   0.00000   0.00000  -0.16732   0.00000
  13        2PY         0.00000   0.00000   0.15077   0.00000   0.07431
  14        2PZ         0.00000  -0.14788   0.00000   0.00000   0.00000
  15        3S          0.00000   0.00000  -0.42254   0.00000  -0.71047
  16        3PX         0.36042   0.00000   0.00000  -0.26440   0.00000
  17        3PY         0.00000   0.00000   0.26799   0.00000   0.21289
  18        3PZ         0.00000  -0.23193   0.00000   0.00000   0.00000
  19 3   F  1S          0.00000   0.00000   0.05937   0.06679  -0.03856
  20        2S          0.00000   0.00000  -0.04317  -0.02729   0.01575
  21        2PX        -0.15591   0.00000   0.13057   0.01390  -0.10463
  22        2PY        -0.27004   0.00000  -0.07539  -0.10463  -0.10691
  23        2PZ         0.00000  -0.14788   0.00000   0.00000   0.00000
  24        3S         -0.00000   0.00000  -0.42254  -0.61529   0.35524
  25        3PX        -0.18021   0.00000   0.23208   0.09356  -0.20667
  26        3PY        -0.31213   0.00000  -0.13399  -0.20667  -0.14508
  27        3PZ         0.00000  -0.23193   0.00000   0.00000   0.00000
  28 4   F  1S         -0.00000   0.00000   0.05937  -0.06679  -0.03856
  29        2S         -0.00000   0.00000  -0.04317   0.02729   0.01575
  30        2PX        -0.15591   0.00000  -0.13057   0.01390   0.10463
  31        2PY         0.27004   0.00000  -0.07539   0.10463  -0.10691
  32        2PZ         0.00000  -0.14788   0.00000   0.00000   0.00000
  33        3S          0.00000   0.00000  -0.42254   0.61529   0.35524
  34        3PX        -0.18021   0.00000  -0.23208   0.09356   0.20667
  35        3PY         0.31213   0.00000  -0.13399   0.20667  -0.14508
  36        3PZ         0.00000  -0.23193   0.00000   0.00000   0.00000
                          21        22        23        24        25
                       (A2")--V   (E')--V   (E')--V  (A1')--V   (E")--V
     Eigenvalues --     0.94499   1.03951   1.03951   1.14972   2.49239
   1 1   B  1S          0.00000   0.00000   0.00000  -0.10792   0.00000
   2        2S          0.00000   0.00000  -0.00000   1.61951   0.00000
   3        2PX         0.00000   1.27114   0.00000   0.00000   0.00000
   4        2PY         0.00000   0.00000   1.27114   0.00000   0.00000
   5        2PZ         1.15818   0.00000   0.00000   0.00000   0.00000
   6        3S          0.00000   0.00000   0.00000  -1.32245   0.00000
   7        3PX         0.00000  -0.74906   0.00000   0.00000   0.00000
   8        3PY         0.00000   0.00000  -0.74906  -0.00000   0.00000
   9        3PZ        -0.93085   0.00000   0.00000   0.00000   0.00000
  10 2   F  1S          0.00000   0.00000   0.02084   0.00154   0.00000
  11        2S          0.00000   0.00000  -0.04139  -0.02273   0.00000
  12        2PX         0.00000  -0.03166   0.00000   0.00000   0.00000
  13        2PY         0.00000   0.00000   0.22478   0.15982   0.00000
  14        2PZ        -0.00216   0.00000   0.00000   0.00000   0.00000
  15        3S          0.00000   0.00000   0.04444   0.15661   0.00000
  16        3PX         0.00000   0.02683   0.00000   0.00000   0.00000
  17        3PY         0.00000   0.00000   0.29804   0.08146   0.00000
  18        3PZ         0.05668   0.00000   0.00000   0.00000   0.00000
  19 3   F  1S          0.00000   0.01805  -0.01042   0.00154   0.00000
  20        2S          0.00000  -0.03585   0.02070  -0.02273   0.00000
  21        2PX         0.00000   0.16067  -0.11104   0.13841   0.00000
  22        2PY         0.00000  -0.11104   0.03245  -0.07991   0.00000
  23        2PZ        -0.00216   0.00000   0.00000   0.00000   0.71932
  24        3S          0.00000   0.03848  -0.02222   0.15661   0.00000
  25        3PX         0.00000   0.23024  -0.11744   0.07055   0.00000
  26        3PY         0.00000  -0.11744   0.09463  -0.04073   0.00000
  27        3PZ         0.05668   0.00000   0.00000   0.00000  -0.67962
  28 4   F  1S          0.00000  -0.01805  -0.01042   0.00154   0.00000
  29        2S          0.00000   0.03585   0.02070  -0.02273   0.00000
  30        2PX         0.00000   0.16067   0.11104  -0.13841   0.00000
  31        2PY         0.00000   0.11104   0.03245  -0.07991   0.00000
  32        2PZ        -0.00216   0.00000   0.00000   0.00000  -0.71932
  33        3S          0.00000  -0.03848  -0.02222   0.15661   0.00000
  34        3PX         0.00000   0.23024   0.11744  -0.07055   0.00000
  35        3PY         0.00000   0.11744   0.09463  -0.04073   0.00000
  36        3PZ         0.05668   0.00000   0.00000   0.00000   0.67962
                          26        27        28        29        30
                        (E")--V  (A2')--V   (E')--V   (E')--V  (A2")--V
     Eigenvalues --     2.49239   2.55224   2.60023   2.60023   2.70250
   1 1   B  1S          0.00000   0.00000   0.00000   0.00000   0.00000
   2        2S          0.00000   0.00000   0.00000  -0.00000   0.00000
   3        2PX         0.00000   0.00000  -0.05383   0.00000   0.00000
   4        2PY         0.00000   0.00000   0.00000  -0.05383   0.00000
   5        2PZ        -0.00000   0.00000   0.00000   0.00000  -0.04361
   6        3S          0.00000   0.00000   0.00000   0.00000   0.00000
   7        3PX         0.00000  -0.00000  -0.35345   0.00000   0.00000
   8        3PY         0.00000   0.00000   0.00000  -0.35345   0.00000
   9        3PZ        -0.00000   0.00000   0.00000   0.00000  -0.36404
  10 2   F  1S          0.00000   0.00000   0.00000  -0.03595   0.00000
  11        2S          0.00000   0.00000   0.00000   0.18629   0.00000
  12        2PX         0.00000   0.58643  -0.81548   0.00000   0.00000
  13        2PY         0.00000   0.00000   0.00000  -0.00228   0.00000
  14        2PZ         0.83060   0.00000   0.00000   0.00000  -0.59006
  15        3S          0.00000   0.00000   0.00000   0.03049   0.00000
  16        3PX         0.00000  -0.56849   0.85206   0.00000   0.00000
  17        3PY         0.00000   0.00000   0.00000  -0.04717   0.00000
  18        3PZ        -0.78476   0.00000   0.00000   0.00000   0.64725
  19 3   F  1S          0.00000  -0.00000  -0.03114   0.01798   0.00000
  20        2S          0.00000   0.00000   0.16133  -0.09315   0.00000
  21        2PX         0.00000  -0.29322  -0.20558  -0.35212   0.00000
  22        2PY         0.00000  -0.50787  -0.35212  -0.61218   0.00000
  23        2PZ        -0.41530   0.00000   0.00000   0.00000  -0.59006
  24        3S          0.00000   0.00000   0.02641  -0.01525   0.00000
  25        3PX         0.00000   0.28425   0.17764   0.38938   0.00000
  26        3PY         0.00000   0.49233   0.38938   0.62725   0.00000
  27        3PZ         0.39238   0.00000   0.00000   0.00000   0.64725
  28 4   F  1S          0.00000   0.00000   0.03114   0.01798   0.00000
  29        2S          0.00000  -0.00000  -0.16133  -0.09315   0.00000
  30        2PX         0.00000  -0.29322  -0.20558   0.35212   0.00000
  31        2PY         0.00000   0.50787   0.35212  -0.61218   0.00000
  32        2PZ        -0.41530   0.00000   0.00000   0.00000  -0.59006
  33        3S          0.00000  -0.00000  -0.02641  -0.01525   0.00000
  34        3PX         0.00000   0.28425   0.17764  -0.38938   0.00000
  35        3PY         0.00000  -0.49233  -0.38938   0.62725   0.00000
  36        3PZ         0.39238   0.00000   0.00000   0.00000   0.64725
                          31        32        33        34        35
                        (E')--V   (E')--V  (A1')--V   (E')--V   (E')--V
     Eigenvalues --     2.71113   2.71113   2.72024   4.19108   4.19108
   1 1   B  1S          0.00000   0.00000  -0.00581   0.00000  -0.00000
   2        2S          0.00000  -0.00000   0.60917   0.00000   0.00000
   3        2PX         0.47291   0.00000   0.00000  -0.28548   0.00000
   4        2PY         0.00000   0.47291   0.00000   0.00000  -0.28548
   5        2PZ         0.00000   0.00000   0.00000   0.00000   0.00000
   6        3S          0.00000   0.00000  -0.03981   0.00000   0.00000
   7        3PX        -0.12974   0.00000   0.00000  -0.58161   0.00000
   8        3PY         0.00000  -0.12974  -0.00000   0.00000  -0.58161
   9        3PZ         0.00000   0.00000   0.00000   0.00000   0.00000
  10 2   F  1S          0.00000   0.02517   0.02748   0.00000   0.08602
  11        2S          0.00000  -0.13650  -0.15379   0.00000  -1.26738
  12        2PX        -0.02437   0.00000   0.00000  -0.16789   0.00000
  13        2PY         0.00000  -0.82414  -0.57201   0.00000   0.13445
  14        2PZ         0.00000   0.00000   0.00000   0.00000   0.00000
  15        3S          0.00000   0.04735   0.05342   0.00000   1.43124
  16        3PX         0.01421   0.00000   0.00000   0.31085   0.00000
  17        3PY         0.00000   0.94757   0.66649   0.00000  -0.30779
  18        3PZ         0.00000   0.00000   0.00000   0.00000   0.00000
  19 3   F  1S          0.02180  -0.01259   0.02748   0.07449  -0.04301
  20        2S         -0.11821   0.06825  -0.15379  -1.09759   0.63369
  21        2PX        -0.62420   0.34631  -0.49538   0.05886  -0.13092
  22        2PY         0.34631  -0.22431   0.28601  -0.13092  -0.09231
  23        2PZ         0.00000   0.00000   0.00000   0.00000   0.00000
  24        3S          0.04100  -0.02367   0.05342   1.23949  -0.71562
  25        3PX         0.71423  -0.40415   0.57720  -0.15313   0.26788
  26        3PY        -0.40415   0.24755  -0.33325   0.26788   0.15619
  27        3PZ         0.00000   0.00000   0.00000   0.00000   0.00000
  28 4   F  1S         -0.02180  -0.01259   0.02748  -0.07449  -0.04301
  29        2S          0.11821   0.06825  -0.15379   1.09759   0.63369
  30        2PX        -0.62420  -0.34631   0.49538   0.05886   0.13092
  31        2PY        -0.34631  -0.22431   0.28601   0.13092  -0.09231
  32        2PZ         0.00000   0.00000   0.00000   0.00000   0.00000
  33        3S         -0.04100  -0.02367   0.05342  -1.23949  -0.71562
  34        3PX         0.71423   0.40415  -0.57720  -0.15313  -0.26788
  35        3PY         0.40415   0.24755  -0.33325  -0.26788   0.15619
  36        3PZ         0.00000   0.00000   0.00000   0.00000   0.00000
                          36
                       (A1')--V
     Eigenvalues --     4.21829
   1 1   B  1S          0.05780
   2        2S         -0.17995
   3        2PX         0.00000
   4        2PY        -0.00000
   5        2PZ         0.00000
   6        3S         -0.66769
   7        3PX         0.00000
   8        3PY        -0.00000
   9        3PZ         0.00000
  10 2   F  1S          0.06135
  11        2S         -0.89806
  12        2PX         0.00000
  13        2PY         0.14533
  14        2PZ         0.00000
  15        3S          0.97992
  16        3PX         0.00000
  17        3PY        -0.29936
  18        3PZ         0.00000
  19 3   F  1S          0.06135
  20        2S         -0.89806
  21        2PX         0.12586
  22        2PY        -0.07267
  23        2PZ         0.00000
  24        3S          0.97992
  25        3PX        -0.25925
  26        3PY         0.14968
  27        3PZ         0.00000
  28 4   F  1S          0.06135
  29        2S         -0.89806
  30        2PX        -0.12586
  31        2PY        -0.07267
  32        2PZ         0.00000
  33        3S          0.97992
  34        3PX         0.25925
  35        3PY         0.14968
  36        3PZ         0.00000
     Alpha Density Matrix:
                           1         2         3         4         5
   1 1   B  1S          1.00003
   2        2S          0.05119   0.06199
   3        2PX         0.00000   0.00000   0.06650
   4        2PY         0.00000  -0.00000   0.00000   0.06650
   5        2PZ        -0.00000  -0.00000  -0.00000   0.00000   0.32658
   6        3S         -0.05844   0.05032  -0.00000   0.00000  -0.00000
   7        3PX         0.00000  -0.00000   0.00742  -0.00000  -0.00000
   8        3PY         0.00000   0.00000   0.00000   0.00742  -0.00000
   9        3PZ        -0.00000  -0.00000  -0.00000   0.00000   0.36255
  10 2   F  1S          0.00322  -0.00026  -0.00000  -0.00333  -0.00000
  11        2S         -0.00132   0.00074   0.00000   0.00533   0.00000
  12        2PX         0.00000  -0.00000   0.01971  -0.00000   0.00000
  13        2PY         0.03523  -0.05475  -0.00000  -0.09537  -0.00000
  14        2PZ         0.00000  -0.00000   0.00000  -0.00000  -0.04389
  15        3S         -0.00755  -0.00795   0.00000   0.00980   0.00000
  16        3PX         0.00000  -0.00000   0.02225  -0.00000   0.00000
  17        3PY         0.05017  -0.06244  -0.00000  -0.10904  -0.00000
  18        3PZ         0.00000  -0.00000   0.00000  -0.00000  -0.07746
  19 3   F  1S          0.00322  -0.00026  -0.00288   0.00167   0.00000
  20        2S         -0.00132   0.00074   0.00461  -0.00266  -0.00000
  21        2PX         0.03051  -0.04742  -0.06660   0.04983   0.00000
  22        2PY        -0.01762   0.02738   0.04983  -0.00906  -0.00000
  23        2PZ         0.00000  -0.00000   0.00000  -0.00000  -0.04389
  24        3S         -0.00755  -0.00795   0.00849  -0.00490  -0.00000
  25        3PX         0.04345  -0.05407  -0.07622   0.05685   0.00000
  26        3PY        -0.02509   0.03122   0.05685  -0.01057   0.00000
  27        3PZ         0.00000  -0.00000   0.00000  -0.00000  -0.07746
  28 4   F  1S          0.00322  -0.00026   0.00288   0.00167  -0.00000
  29        2S         -0.00132   0.00074  -0.00461  -0.00266   0.00000
  30        2PX        -0.03051   0.04742  -0.06660  -0.04983   0.00000
  31        2PY        -0.01762   0.02738  -0.04983  -0.00906   0.00000
  32        2PZ        -0.00000   0.00000   0.00000   0.00000  -0.04389
  33        3S         -0.00755  -0.00795  -0.00849  -0.00490   0.00000
  34        3PX        -0.04345   0.05407  -0.07622  -0.05685   0.00000
  35        3PY        -0.02509   0.03122  -0.05685  -0.01057   0.00000
  36        3PZ        -0.00000   0.00000   0.00000   0.00000  -0.07746
                           6         7         8         9        10
   6        3S          0.05148
   7        3PX         0.00000   0.02434
   8        3PY         0.00000   0.00000   0.02434
   9        3PZ         0.00000  -0.00000   0.00000   0.40249
  10 2   F  1S          0.00672   0.00000   0.00798   0.00000   1.02893
  11        2S          0.00017   0.00000   0.00231   0.00000   0.03264
  12        2PX        -0.00000   0.06533  -0.00000  -0.00000  -0.00000
  13        2PY        -0.05329  -0.00000   0.00543  -0.00000  -0.01443
  14        2PZ        -0.00000   0.00000  -0.00000  -0.04780  -0.00000
  15        3S         -0.01068  -0.00000  -0.01258  -0.00000  -0.24068
  16        3PX        -0.00000   0.07391  -0.00000  -0.00000  -0.00000
  17        3PY        -0.06171  -0.00000   0.00973  -0.00000  -0.00707
  18        3PZ        -0.00000   0.00000  -0.00000  -0.08496  -0.00000
  19 3   F  1S          0.00672   0.00691  -0.00399  -0.00000  -0.00017
  20        2S          0.00017   0.00200  -0.00116  -0.00000   0.00016
  21        2PX        -0.04615   0.02041   0.02594   0.00000  -0.00054
  22        2PY         0.02664   0.02594   0.05036  -0.00000   0.00599
  23        2PZ         0.00000  -0.00000   0.00000  -0.04780  -0.00000
  24        3S         -0.01068  -0.01090   0.00629   0.00000   0.00053
  25        3PX        -0.05344   0.02578   0.02779   0.00000  -0.00117
  26        3PY         0.03086   0.02779   0.05787  -0.00000   0.00428
  27        3PZ         0.00000  -0.00000   0.00000  -0.08496   0.00000
  28 4   F  1S          0.00672  -0.00691  -0.00399   0.00000  -0.00017
  29        2S          0.00017  -0.00200  -0.00116   0.00000   0.00016
  30        2PX         0.04615   0.02041  -0.02594   0.00000   0.00054
  31        2PY         0.02664  -0.02594   0.05036   0.00000   0.00599
  32        2PZ        -0.00000  -0.00000  -0.00000  -0.04780   0.00000
  33        3S         -0.01068   0.01090   0.00629  -0.00000   0.00053
  34        3PX         0.05344   0.02578  -0.02779   0.00000   0.00117
  35        3PY         0.03086  -0.02779   0.05787   0.00000   0.00428
  36        3PZ        -0.00000  -0.00000  -0.00000  -0.08496  -0.00000
                          11        12        13        14        15
  11        2S          0.06855
  12        2PX         0.00000   0.27364
  13        2PY         0.01408  -0.00000   0.21088
  14        2PZ         0.00000  -0.00000  -0.00000   0.30190
  15        3S          0.19492   0.00000   0.05643   0.00000   0.67760
  16        3PX         0.00000   0.31187   0.00000  -0.00000   0.00000
  17        3PY         0.01490  -0.00000   0.24343  -0.00000   0.05545
  18        3PZ         0.00000   0.00000  -0.00000   0.34446   0.00000
  19 3   F  1S          0.00016   0.00492  -0.00346  -0.00000   0.00053
  20        2S         -0.00015   0.00085   0.00226  -0.00000   0.00025
  21        2PX         0.00239   0.00564  -0.01048  -0.00000  -0.00379
  22        2PY        -0.00040  -0.01403   0.01979  -0.00000  -0.04231
  23        2PZ         0.00000  -0.00000  -0.00000   0.00913  -0.00000
  24        3S          0.00025  -0.03854   0.01787  -0.00000  -0.00131
  25        3PX         0.00227   0.01255  -0.01257  -0.00000  -0.00427
  26        3PY        -0.00080  -0.02188   0.02278  -0.00000  -0.04879
  27        3PZ         0.00000  -0.00000   0.00000   0.00998   0.00000
  28 4   F  1S          0.00016  -0.00492  -0.00346   0.00000   0.00053
  29        2S         -0.00015  -0.00085   0.00226   0.00000   0.00025
  30        2PX        -0.00239   0.00564   0.01048  -0.00000   0.00379
  31        2PY        -0.00040   0.01403   0.01979   0.00000  -0.04231
  32        2PZ        -0.00000  -0.00000   0.00000   0.00913   0.00000
  33        3S          0.00025   0.03854   0.01787   0.00000  -0.00131
  34        3PX        -0.00227   0.01255   0.01257  -0.00000   0.00427
  35        3PY        -0.00080   0.02188   0.02278   0.00000  -0.04879
  36        3PZ        -0.00000  -0.00000  -0.00000   0.00998  -0.00000
                          16        17        18        19        20
  16        3PX         0.35548
  17        3PY        -0.00000   0.28172
  18        3PZ         0.00000  -0.00000   0.39546
  19 3   F  1S          0.00312  -0.00316   0.00000   1.02893
  20        2S          0.00044   0.00236  -0.00000   0.03264   0.06855
  21        2PX         0.00531  -0.00839  -0.00000  -0.01249   0.01219
  22        2PY        -0.01769   0.03002   0.00000   0.00721  -0.00704
  23        2PZ        -0.00000   0.00000   0.00998  -0.00000  -0.00000
  24        3S         -0.04439   0.02070  -0.00000  -0.24068   0.19492
  25        3PX         0.01295  -0.01043   0.00000  -0.00612   0.01291
  26        3PY        -0.02684   0.03447   0.00000   0.00353  -0.00745
  27        3PZ        -0.00000   0.00000   0.01335  -0.00000   0.00000
  28 4   F  1S         -0.00312  -0.00316  -0.00000  -0.00017   0.00016
  29        2S         -0.00044   0.00236   0.00000   0.00016  -0.00015
  30        2PX         0.00531   0.00839  -0.00000   0.00546  -0.00154
  31        2PY         0.01769   0.03002  -0.00000  -0.00253  -0.00187
  32        2PZ        -0.00000  -0.00000   0.00998  -0.00000  -0.00000
  33        3S          0.04439   0.02070   0.00000   0.00053   0.00025
  34        3PX         0.01295   0.01043   0.00000   0.00430  -0.00182
  35        3PY         0.02684   0.03447  -0.00000  -0.00112  -0.00156
  36        3PZ        -0.00000  -0.00000   0.01335   0.00000  -0.00000
                          21        22        23        24        25
  21        2PX         0.22657
  22        2PY         0.02718   0.25795
  23        2PZ        -0.00000  -0.00000   0.30190
  24        3S          0.04887  -0.02822  -0.00000   0.67760
  25        3PX         0.26054   0.02964   0.00000   0.04802   0.30016
  26        3PY         0.02964   0.29476  -0.00000  -0.02772   0.03194
  27        3PZ         0.00000   0.00000   0.34446  -0.00000   0.00000
  28 4   F  1S         -0.00546  -0.00253   0.00000   0.00053  -0.00430
  29        2S          0.00154  -0.00187   0.00000   0.00025   0.00182
  30        2PX         0.02687   0.00178  -0.00000  -0.03475   0.03514
  31        2PY        -0.00178  -0.00143   0.00000   0.02444  -0.00884
  32        2PZ        -0.00000  -0.00000   0.00913   0.00000  -0.00000
  33        3S          0.03475   0.02444  -0.00000  -0.00131   0.04012
  34        3PX         0.03514   0.00884  -0.00000  -0.04012   0.04523
  35        3PY        -0.00047   0.00019   0.00000   0.02809  -0.00820
  36        3PZ        -0.00000  -0.00000   0.00998  -0.00000  -0.00000
                          26        27        28        29        30
  26        3PY         0.33704
  27        3PZ         0.00000   0.39546
  28 4   F  1S         -0.00112  -0.00000   1.02893
  29        2S         -0.00156   0.00000   0.03264   0.06855
  30        2PX         0.00047  -0.00000   0.01249  -0.01219   0.22657
  31        2PY         0.00019   0.00000   0.00721  -0.00704  -0.02718
  32        2PZ        -0.00000   0.00998   0.00000   0.00000  -0.00000
  33        3S          0.02809   0.00000  -0.24068   0.19492  -0.04887
  34        3PX         0.00820  -0.00000   0.00612  -0.01291   0.26054
  35        3PY         0.00219   0.00000   0.00353  -0.00745  -0.02964
  36        3PZ        -0.00000   0.01335   0.00000  -0.00000   0.00000
                          31        32        33        34        35
  31        2PY         0.25795
  32        2PZ         0.00000   0.30190
  33        3S         -0.02822   0.00000   0.67760
  34        3PX        -0.02964   0.00000  -0.04802   0.30016
  35        3PY         0.29476   0.00000  -0.02772  -0.03194   0.33704
  36        3PZ        -0.00000   0.34446   0.00000   0.00000  -0.00000
                          36
  36        3PZ         0.39546
     Beta Density Matrix:
                           1         2         3         4         5
   1 1   B  1S          0.99611
   2        2S          0.05707   0.04770
   3        2PX        -0.00000  -0.00000   0.05525
   4        2PY         0.00000   0.00000  -0.00000   0.05525
   5        2PZ        -0.00000  -0.00000  -0.00000  -0.00000   0.00994
   6        3S         -0.04478   0.02745   0.00000   0.00000  -0.00000
   7        3PX        -0.00000   0.00000   0.00409  -0.00000  -0.00000
   8        3PY         0.00000  -0.00000   0.00000   0.00409  -0.00000
   9        3PZ        -0.00000  -0.00000  -0.00000   0.00000   0.01689
  10 2   F  1S          0.00394  -0.00096  -0.00000  -0.00353  -0.00000
  11        2S         -0.00201   0.00087   0.00000   0.00568   0.00000
  12        2PX         0.00000  -0.00000   0.01919  -0.00000   0.00000
  13        2PY         0.03312  -0.05038  -0.00000  -0.08851  -0.00000
  14        2PZ         0.00000  -0.00000   0.00000  -0.00000   0.02852
  15        3S         -0.01222  -0.00096   0.00000   0.01245   0.00000
  16        3PX         0.00000  -0.00000   0.02221  -0.00000   0.00000
  17        3PY         0.04784  -0.05880  -0.00000  -0.10059  -0.00000
  18        3PZ         0.00000  -0.00000   0.00000  -0.00000   0.03132
  19 3   F  1S          0.00394  -0.00096  -0.00306   0.00176   0.00000
  20        2S         -0.00201   0.00087   0.00492  -0.00284  -0.00000
  21        2PX         0.02868  -0.04363  -0.06159   0.04664   0.00000
  22        2PY        -0.01656   0.02519   0.04664  -0.00773   0.00000
  23        2PZ         0.00000  -0.00000   0.00000  -0.00000   0.02852
  24        3S         -0.01222  -0.00096   0.01078  -0.00623  -0.00000
  25        3PX         0.04143  -0.05092  -0.06989   0.05317   0.00000
  26        3PY        -0.02392   0.02940   0.05317  -0.00849   0.00000
  27        3PZ         0.00000  -0.00000   0.00000  -0.00000   0.03132
  28 4   F  1S          0.00394  -0.00096   0.00306   0.00176  -0.00000
  29        2S         -0.00201   0.00087  -0.00492  -0.00284   0.00000
  30        2PX        -0.02868   0.04363  -0.06159  -0.04664   0.00000
  31        2PY        -0.01656   0.02519  -0.04664  -0.00773  -0.00000
  32        2PZ        -0.00000   0.00000   0.00000   0.00000   0.02852
  33        3S         -0.01222  -0.00096  -0.01078  -0.00623   0.00000
  34        3PX        -0.04143   0.05092  -0.06989  -0.05317   0.00000
  35        3PY        -0.02392   0.02940  -0.05317  -0.00849  -0.00000
  36        3PZ        -0.00000   0.00000   0.00000   0.00000   0.03132
                           6         7         8         9        10
   6        3S          0.02243
   7        3PX        -0.00000   0.02361
   8        3PY         0.00000   0.00000   0.02361
   9        3PZ         0.00000  -0.00000  -0.00000   0.02871
  10 2   F  1S          0.00437   0.00000   0.00748   0.00000   1.02872
  11        2S          0.00212   0.00000   0.00273   0.00000   0.03317
  12        2PX        -0.00000   0.06404  -0.00000  -0.00000  -0.00000
  13        2PY        -0.03652  -0.00000   0.01028  -0.00000  -0.01251
  14        2PZ        -0.00000  -0.00000  -0.00000   0.04847  -0.00000
  15        3S          0.00275  -0.00000  -0.01029  -0.00000  -0.23980
  16        3PX        -0.00000   0.07261  -0.00000  -0.00000  -0.00000
  17        3PY        -0.04337  -0.00000   0.01503  -0.00000  -0.00541
  18        3PZ        -0.00000   0.00000  -0.00000   0.05324  -0.00000
  19 3   F  1S          0.00437   0.00648  -0.00374  -0.00000  -0.00028
  20        2S          0.00212   0.00237  -0.00137  -0.00000   0.00028
  21        2PX        -0.03163   0.02372   0.02328   0.00000  -0.00011
  22        2PY         0.01826   0.02328   0.05060  -0.00000   0.00565
  23        2PZ         0.00000  -0.00000   0.00000   0.04847  -0.00000
  24        3S          0.00275  -0.00891   0.00514   0.00000   0.00116
  25        3PX        -0.03756   0.02943   0.02493   0.00000  -0.00066
  26        3PY         0.02168   0.02493   0.05821  -0.00000   0.00395
  27        3PZ         0.00000  -0.00000   0.00000   0.05324   0.00000
  28 4   F  1S          0.00437  -0.00648  -0.00374   0.00000  -0.00028
  29        2S          0.00212  -0.00237  -0.00137   0.00000   0.00028
  30        2PX         0.03163   0.02372  -0.02328   0.00000   0.00011
  31        2PY         0.01826  -0.02328   0.05060   0.00000   0.00565
  32        2PZ        -0.00000  -0.00000  -0.00000   0.04847   0.00000
  33        3S          0.00275   0.00891   0.00514  -0.00000   0.00116
  34        3PX         0.03756   0.02943  -0.02493   0.00000   0.00066
  35        3PY         0.02168  -0.02493   0.05821   0.00000   0.00395
  36        3PZ        -0.00000  -0.00000  -0.00000   0.05324  -0.00000
                          11        12        13        14        15
  11        2S          0.06759
  12        2PX         0.00000   0.27346
  13        2PY         0.01262  -0.00000   0.22462
  14        2PZ         0.00000  -0.00000  -0.00000   0.26846
  15        3S          0.19299   0.00000   0.04499   0.00000   0.67308
  16        3PX         0.00000   0.31242  -0.00000  -0.00000   0.00000
  17        3PY         0.01374  -0.00000   0.25996  -0.00000   0.04429
  18        3PZ         0.00000   0.00000  -0.00000   0.31196   0.00000
  19 3   F  1S          0.00028   0.00483  -0.00292  -0.00000   0.00116
  20        2S         -0.00026   0.00077   0.00251  -0.00000  -0.00035
  21        2PX         0.00256   0.00484  -0.00707  -0.00000  -0.00713
  22        2PY        -0.00059  -0.01332   0.01661  -0.00000  -0.03941
  23        2PZ        -0.00000  -0.00000  -0.00000  -0.01147  -0.00000
  24        3S         -0.00035  -0.03770   0.01353   0.00000  -0.00523
  25        3PX         0.00249   0.01126  -0.00701  -0.00000  -0.00811
  26        3PY        -0.00109  -0.02078   0.01738  -0.00000  -0.04584
  27        3PZ         0.00000  -0.00000   0.00000  -0.02114  -0.00000
  28 4   F  1S          0.00028  -0.00483  -0.00292   0.00000   0.00116
  29        2S         -0.00026  -0.00077   0.00251   0.00000  -0.00035
  30        2PX        -0.00256   0.00484   0.00707  -0.00000   0.00713
  31        2PY        -0.00059   0.01332   0.01661   0.00000  -0.03941
  32        2PZ         0.00000  -0.00000   0.00000  -0.01147   0.00000
  33        3S         -0.00035   0.03770   0.01353  -0.00000  -0.00523
  34        3PX        -0.00249   0.01126   0.00701  -0.00000   0.00811
  35        3PY        -0.00109   0.02078   0.01738   0.00000  -0.04584
  36        3PZ        -0.00000  -0.00000  -0.00000  -0.02114   0.00000
                          16        17        18        19        20
  16        3PX         0.35698
  17        3PY        -0.00000   0.30154
  18        3PZ         0.00000  -0.00000   0.36298
  19 3   F  1S          0.00309  -0.00255   0.00000   1.02872
  20        2S          0.00030   0.00270  -0.00000   0.03317   0.06759
  21        2PX         0.00382  -0.00271   0.00000  -0.01084   0.01093
  22        2PY        -0.01648   0.02483  -0.00000   0.00626  -0.00631
  23        2PZ        -0.00000  -0.00000  -0.02114  -0.00000   0.00000
  24        3S         -0.04376   0.01590  -0.00000  -0.23980   0.19299
  25        3PX         0.01084  -0.00195   0.00000  -0.00468   0.01190
  26        3PY        -0.02515   0.02649  -0.00000   0.00270  -0.00687
  27        3PZ        -0.00000   0.00000  -0.03339   0.00000   0.00000
  28 4   F  1S         -0.00309  -0.00255  -0.00000  -0.00028   0.00028
  29        2S         -0.00030   0.00270   0.00000   0.00028  -0.00026
  30        2PX         0.00382   0.00271   0.00000   0.00495  -0.00179
  31        2PY         0.01648   0.02483   0.00000  -0.00273  -0.00192
  32        2PZ        -0.00000   0.00000  -0.02114  -0.00000  -0.00000
  33        3S          0.04376   0.01590   0.00000   0.00116  -0.00035
  34        3PX         0.01084   0.00195   0.00000   0.00375  -0.00219
  35        3PY         0.02515   0.02649   0.00000  -0.00140  -0.00161
  36        3PZ        -0.00000  -0.00000  -0.03339   0.00000  -0.00000
                          21        22        23        24        25
  21        2PX         0.23683
  22        2PY         0.02115   0.26125
  23        2PZ        -0.00000  -0.00000   0.26846
  24        3S          0.03896  -0.02250  -0.00000   0.67308
  25        3PX         0.27308   0.02271   0.00000   0.03836   0.31540
  26        3PY         0.02271   0.29930  -0.00000  -0.02215   0.02401
  27        3PZ        -0.00000   0.00000   0.31196  -0.00000   0.00000
  28 4   F  1S         -0.00495  -0.00273   0.00000   0.00116  -0.00375
  29        2S          0.00179  -0.00192   0.00000  -0.00035   0.00219
  30        2PX         0.02250   0.00312   0.00000  -0.03057   0.02789
  31        2PY        -0.00312  -0.00104  -0.00000   0.02588  -0.01118
  32        2PZ         0.00000   0.00000  -0.01147   0.00000   0.00000
  33        3S          0.03057   0.02588  -0.00000  -0.00523   0.03564
  34        3PX         0.02789   0.01118   0.00000  -0.03564   0.03432
  35        3PY        -0.00258   0.00076   0.00000   0.02994  -0.01160
  36        3PZ        -0.00000  -0.00000  -0.02114  -0.00000  -0.00000
                          26        27        28        29        30
  26        3PY         0.34312
  27        3PZ         0.00000   0.36298
  28 4   F  1S         -0.00140  -0.00000   1.02872
  29        2S         -0.00161   0.00000   0.03317   0.06759
  30        2PX         0.00258  -0.00000   0.01084  -0.01093   0.23683
  31        2PY         0.00076   0.00000   0.00626  -0.00631  -0.02115
  32        2PZ        -0.00000  -0.02114   0.00000  -0.00000  -0.00000
  33        3S          0.02994   0.00000  -0.23980   0.19299  -0.03896
  34        3PX         0.01160  -0.00000   0.00468  -0.01190   0.27308
  35        3PY         0.00302   0.00000   0.00270  -0.00687  -0.02271
  36        3PZ        -0.00000  -0.03339  -0.00000  -0.00000  -0.00000
                          31        32        33        34        35
  31        2PY         0.26125
  32        2PZ         0.00000   0.26846
  33        3S         -0.02250   0.00000   0.67308
  34        3PX        -0.02271   0.00000  -0.03836   0.31540
  35        3PY         0.29930   0.00000  -0.02215  -0.02401   0.34312
  36        3PZ        -0.00000   0.31196   0.00000   0.00000  -0.00000
                          36
  36        3PZ         0.36298
    Full Mulliken population analysis:
                           1         2         3         4         5
   1 1   B  1S          1.99614
   2        2S          0.01980   0.10969
   3        2PX         0.00000   0.00000   0.12175
   4        2PY         0.00000   0.00000   0.00000   0.12175
   5        2PZ         0.00000   0.00000  -0.00000  -0.00000   0.33652
   6        3S         -0.01794   0.06029   0.00000   0.00000   0.00000
   7        3PX         0.00000   0.00000   0.00635  -0.00000  -0.00000
   8        3PY         0.00000   0.00000  -0.00000   0.00635   0.00000
   9        3PZ         0.00000   0.00000  -0.00000  -0.00000   0.20918
  10 2   F  1S          0.00000  -0.00001  -0.00000  -0.00013  -0.00000
  11        2S         -0.00000   0.00008   0.00000   0.00122   0.00000
  12        2PX        -0.00000   0.00000   0.00087   0.00000  -0.00000
  13        2PY        -0.00001   0.00605   0.00000   0.01985   0.00000
  14        2PZ        -0.00000   0.00000  -0.00000   0.00000  -0.00034
  15        3S         -0.00031  -0.00166   0.00000   0.00633   0.00000
  16        3PX        -0.00000   0.00000   0.00660   0.00000  -0.00000
  17        3PY        -0.00533   0.04058   0.00000   0.08395   0.00000
  18        3PZ        -0.00000   0.00000  -0.00000   0.00000  -0.00685
  19 3   F  1S          0.00000  -0.00001  -0.00009  -0.00003  -0.00000
  20        2S         -0.00000   0.00008   0.00092   0.00031   0.00000
  21        2PX        -0.00001   0.00453   0.00967   0.00544   0.00000
  22        2PY        -0.00000   0.00151   0.00544   0.00017   0.00000
  23        2PZ         0.00000  -0.00000   0.00000   0.00000  -0.00034
  24        3S         -0.00031  -0.00166   0.00475   0.00158   0.00000
  25        3PX        -0.00400   0.03043   0.03846   0.02615   0.00000
  26        3PY        -0.00133   0.01014   0.02615  -0.00021  -0.00000
  27        3PZ         0.00000  -0.00000   0.00000   0.00000  -0.00685
  28 4   F  1S          0.00000  -0.00001  -0.00009  -0.00003   0.00000
  29        2S         -0.00000   0.00008   0.00092   0.00031  -0.00000
  30        2PX        -0.00001   0.00453   0.00967   0.00544  -0.00000
  31        2PY        -0.00000   0.00151   0.00544   0.00017  -0.00000
  32        2PZ        -0.00000  -0.00000  -0.00000  -0.00000  -0.00034
  33        3S         -0.00031  -0.00166   0.00475   0.00158  -0.00000
  34        3PX        -0.00400   0.03043   0.03846   0.02615   0.00000
  35        3PY        -0.00133   0.01014   0.02615  -0.00021   0.00000
  36        3PZ         0.00000   0.00000  -0.00000  -0.00000  -0.00685
                           6         7         8         9        10
   6        3S          0.07391
   7        3PX         0.00000   0.04796
   8        3PY         0.00000   0.00000   0.04796
   9        3PZ         0.00000  -0.00000  -0.00000   0.43120
  10 2   F  1S          0.00030   0.00000   0.00080   0.00000   2.05765
  11        2S          0.00032   0.00000   0.00129   0.00000   0.01413
  12        2PX         0.00000   0.00680   0.00000   0.00000   0.00000
  13        2PY         0.00459   0.00000  -0.00065   0.00000   0.00000
  14        2PZ         0.00000  -0.00000   0.00000   0.00004   0.00000
  15        3S         -0.00271  -0.00000  -0.01209  -0.00000  -0.08821
  16        3PX         0.00000   0.04043   0.00000   0.00000   0.00000
  17        3PY         0.02821   0.00000  -0.00345   0.00000   0.00000
  18        3PZ         0.00000  -0.00000   0.00000  -0.00875   0.00000
  19 3   F  1S          0.00030   0.00060   0.00020   0.00000   0.00000
  20        2S          0.00032   0.00097   0.00032   0.00000   0.00000
  21        2PX         0.00344  -0.00079   0.00200   0.00000   0.00000
  22        2PY         0.00115   0.00200   0.00293   0.00000   0.00000
[...]
  16         (A2')--O         -0.322634          3.221442
  17         (A2")--V          0.508279          1.257839
  18         (A1')--V          0.559774          2.003167
  19         (E')--V           0.680727          1.493083
  20         (E')--V           0.680727          1.493083
  21         (A2")--V          0.945535          1.770373
  22         (E')--V           1.072626          2.906436
  23         (E')--V           1.072626          2.906436
  24         (A1')--V          1.179258          2.724928
  25         (E")--V           2.495322          6.588575
  26         (E")--V           2.495322          6.588575
  27         (A2')--V          2.567615          6.598343
  28         (E')--V           2.603646          6.683662
  29         (E')--V           2.603646          6.683662
  30         (A1')--V          2.714609          6.650546
  31         (A2")--V          2.717263          6.653145
  32         (E')--V           2.723573          6.717673
  33         (E')--V           2.723573          6.717673
  34         (E')--V           4.234441          8.663414
  35         (E')--V           4.234441          8.663414
  36         (A1')--V          4.270817          8.713841
 Total kinetic energy from orbitals= 3.203620681802D+02
  Exact polarizability:   8.609  -0.000   8.609  -0.000  -0.000  35.288
 Approx polarizability:   7.090  -0.000   7.090  -0.000  -0.000  10.885
                          Isotropic Fermi Contact Couplings
        Atom                 a.u.       MegaHertz       Gauss      10(-4) cm-1
     1  B(11)              0.07134     102.32595      36.51244      34.13226
     2  F(19)              0.03457     145.45867      51.90327      48.51979
     3  F(19)              0.03457     145.45867      51.90327      48.51979
     4  F(19)              0.03457     145.45867      51.90327      48.51979
 --------------------------------------------------------
       Center         ----  Spin Dipole Couplings  ----
                      3XX-RR        3YY-RR        3ZZ-RR
 --------------------------------------------------------
     1   Atom       -0.260646     -0.260646      0.521293
     2   Atom       -0.195588     -0.414251      0.609839
     3   Atom       -0.359585     -0.250254      0.609839
     4   Atom       -0.359585     -0.250254      0.609839
 --------------------------------------------------------
                        XY            XZ            YZ
 --------------------------------------------------------
     1   Atom       -0.000000      0.000000      0.000000
     2   Atom       -0.000000     -0.000000      0.000000
     3   Atom        0.094684      0.000000     -0.000000
     4   Atom       -0.094684      0.000000      0.000000
 --------------------------------------------------------


 ---------------------------------------------------------------------------------
              Anisotropic Spin Dipole Couplings in Principal Axis System
 ---------------------------------------------------------------------------------

       Atom             a.u.   MegaHertz   Gauss  10(-4) cm-1        Axes

              Baa    -0.2606   -44.627   -15.924   -14.886  0.9485 -0.3167 -0.0000
     1 B(11)  Bbb    -0.2606   -44.627   -15.924   -14.886  0.3167  0.9485 -0.0000
              Bcc     0.5213    89.253    31.848    29.772  0.0000  0.0000  1.0000
 
              Baa    -0.4143  -208.047   -74.236   -69.397  0.0000  1.0000 -0.0000
     2 F(19)  Bbb    -0.1956   -98.229   -35.051   -32.766  1.0000 -0.0000  0.0000
              Bcc     0.6098   306.277   109.287   102.163  0.0000  0.0000  1.0000
 
              Baa    -0.4143  -208.047   -74.236   -69.397  0.8660 -0.5000  0.0000
     3 F(19)  Bbb    -0.1956   -98.229   -35.051   -32.766  0.5000  0.8660 -0.0000
              Bcc     0.6098   306.277   109.287   102.163  0.0000  0.0000  1.0000
 
              Baa    -0.4143  -208.047   -74.236   -69.397  0.8660  0.5000 -0.0000
     4 F(19)  Bbb    -0.1956   -98.229   -35.051   -32.766 -0.5000  0.8660 -0.0000
              Bcc     0.6098   306.277   109.287   102.163  0.0000  0.0000  1.0000
 

 ---------------------------------------------------------------------------------

 Calling FoFJK, ICntrl=    100127 FMM=F ISym2X=1 I1Cent= 0 IOpClX= 1 NMat=1 NMatS=1 NMatT=0.
 Full mass-weighted force constant matrix:
 Low frequencies ----1836.7602   -0.0152   -0.0012    0.0008    0.8611    0.8611
 Low frequencies ---    0.8678  405.8151  405.8151
 ******    1 imaginary frequencies (negative Signs) ****** 
 Diagonal vibrational polarizability:
        4.3310820       4.3310827      28.0902768
 Diagonal vibrational hyperpolarizability:
       -0.0000000       8.4427476       0.0000000
 Harmonic frequencies (cm**-1), IR intensities (KM/Mole), Raman scattering
 activities (A**4/AMU), depolarization ratios for plane and unpolarized
 incident light, reduced masses (AMU), force constants (mDyne/A),
 and normal coordinates:
                      1                      2                      3
                     A2"                    E'                     E'
 Frequencies --  -1836.7602               405.8151               405.8151
 Red. masses --     11.8135                17.8956                17.8956
 Frc consts  --     23.4820                 1.7364                 1.7364
 IR Inten    --   3521.5009                 8.1070                 8.1070
 Raman Activ --      0.0000                 0.8598                 0.8598
 Depolar (P) --      0.0000                 0.7500                 0.7500
 Depolar (U) --      0.0000                 0.8571                 0.8571
  Atom  AN      X      Y      Z        X      Y      Z        X      Y      Z
     1   5    -0.00   0.00   0.95    -0.37  -0.00   0.00     0.00  -0.37   0.00
     2   9     0.00  -0.00  -0.18     0.60  -0.00  -0.00    -0.00  -0.46  -0.00
     3   9     0.00   0.00  -0.18    -0.19   0.46  -0.00     0.46   0.34  -0.00
     4   9     0.00   0.00  -0.18    -0.19  -0.46  -0.00    -0.46   0.34  -0.00
                      4                      5                      6
                     A1'                    E'                     E'
 Frequencies --    776.1279              1357.3831              1357.3831
 Red. masses --     18.9984                12.2843                12.2843
 Frc consts  --      6.7427                13.3353                13.3353
 IR Inten    --      0.0000               205.8295               205.8295
 Raman Activ --      6.6977                 0.1624                 0.1624
 Depolar (P) --      0.7271                 0.7500                 0.7500
 Depolar (U) --      0.8420                 0.8571                 0.8571
  Atom  AN      X      Y      Z        X      Y      Z        X      Y      Z
     1   5     0.00  -0.00   0.00     0.00   0.92  -0.00     0.92  -0.00  -0.00
     2   9    -0.00   0.58  -0.00    -0.00  -0.32   0.00    -0.03   0.00   0.00
     3   9     0.50  -0.29  -0.00     0.13  -0.10   0.00    -0.25   0.13   0.00
     4   9    -0.50  -0.29  -0.00    -0.13  -0.10   0.00    -0.25  -0.13   0.00

 -------------------
 - Thermochemistry -
 -------------------
 Temperature   298.150 Kelvin.  Pressure   1.00000 Atm.
 Atom     1 has atomic number  5 and mass  11.00931
 Atom     2 has atomic number  9 and mass  18.99840
 Atom     3 has atomic number  9 and mass  18.99840
 Atom     4 has atomic number  9 and mass  18.99840
 Molecular mass:    68.00452 amu.
 Principal axes and moments of inertia in atomic units:
                           1         2         3
     Eigenvalues --   205.66026 205.66026 411.32052
           X           -0.54775   0.83664   0.00000
           Y            0.83664   0.54775   0.00000
           Z            0.00000  -0.00000   1.00000
 This molecule is an oblate symmetric top.
 Rotational symmetry number  6.
 Rotational temperatures (Kelvin)      0.42115     0.42115     0.21058
 Rotational constants (GHZ):           8.77535     8.77535     4.38768
    1 imaginary frequencies ignored.
 Zero-point vibrational energy      25734.8 (Joules/Mol)
                                    6.15077 (Kcal/Mol)
 Warning -- explicit consideration of   2 degrees of freedom as
           vibrations may cause significant error
 Vibrational temperatures:    583.88   583.88  1116.67  1952.97  1952.97
          (Kelvin)
 
 Zero-point correction=                           0.009802 (Hartree/Particle)
 Thermal correction to Energy=                    0.013345
 Thermal correction to Enthalpy=                  0.014289
 Thermal correction to Gibbs Free Energy=        -0.015600
 Sum of electronic and zero-point Energies=           -321.317744
 Sum of electronic and thermal Energies=              -321.314201
 Sum of electronic and thermal Enthalpies=            -321.313257
 Sum of electronic and thermal Free Energies=         -321.343146
 
                     E (Thermal)             CV                S
                      KCal/Mol        Cal/Mol-Kelvin    Cal/Mol-Kelvin
 Total                    8.374              9.812             62.907
 Electronic               0.000              0.000              1.377
 Translational            0.889              2.981             38.569
 Rotational               0.889              2.981             20.807
 Vibrational              6.597              3.851              2.154
 Vibration     1          0.771              1.458              0.942
 Vibration     2          0.771              1.458              0.942
                       Q            Log10(Q)             Ln(Q)
 Total Bot       0.149767D+08          7.175416         16.522007
 Total V=0       0.483015D+12         11.683960         26.903313
 Vib (Bot)       0.431709D-04         -4.364809        -10.050344
 Vib (Bot)    1  0.437328D+00         -0.359193         -0.827072
 Vib (Bot)    2  0.437328D+00         -0.359193         -0.827072
 Vib (V=0)       0.139231D+01          0.143735          0.330962
 Vib (V=0)    1  0.116427D+01          0.066054          0.152095
 Vib (V=0)    2  0.116427D+01          0.066054          0.152095
 Electronic      0.200000D+01          0.301030          0.693147
 Translational   0.220425D+08          7.343261         16.908482
 Rotational      0.786928D+04          3.895935          8.970722
 ***** Axes restored to original set *****
 -------------------------------------------------------------------
 Center     Atomic                   Forces (Hartrees/Bohr)
 Number     Number              X              Y              Z
 -------------------------------------------------------------------
      1        5          -0.000000000   -0.000000000   -0.000000000
      2        9           0.000000693   -0.000001200   -0.000000000
      3        9           0.000000693    0.000001200    0.000000000
      4        9          -0.000001385    0.000000000   -0.000000000
 -------------------------------------------------------------------
 Cartesian Forces:  Max     0.000001385 RMS     0.000000693
 FormGI is forming the generalized inverse of G from B-inverse, IUseBI=4.

 GradGradGradGradGradGradGradGradGradGradGradGradGradGradGradGradGradGrad
 Berny optimization.
 Internal  Forces:  Max     0.000001385 RMS     0.000000907
 Search for a local minimum.
 Step number   1 out of a maximum of    2
 All quantities printed in internal units (Hartrees-Bohrs-Radians)
 Second derivative matrix not updated -- analytic derivatives used.
 The second derivative matrix:
                          R1        R2        R3        A1        A2
           R1           0.38710
           R2           0.02299   0.38710
           R3           0.02299   0.02299   0.38710
           A1           0.01188   0.01188  -0.02376   0.11417
           A2           0.01188  -0.02376   0.01188  -0.05708   0.11417
           A3          -0.02376   0.01188   0.01188  -0.05708  -0.05708
           D1          -0.00000  -0.00000  -0.00000   0.00000   0.00000
                          A3        D1
           A3           0.11417
           D1          -0.00000  -0.70846
 ITU=  0
     Eigenvalues ---   -0.70846   0.16487   0.16487   0.37049   0.37049
     Eigenvalues ---    0.43309
 Eigenvalue     1 is  -7.08D-01 should be greater than     0.000000 Eigenvector:
                          D1        A3        A2        R2        A1
   1                   -1.00000  -0.00000   0.00000  -0.00000   0.00000
                          R1        R3
   1                   -0.00000  -0.00000
 Angle between quadratic step and forces=   0.00 degrees.
 Linear search not attempted -- first point.
 Iteration  1 RMS(Cart)=  0.00000209 RMS(Int)=  0.00000000
 Iteration  2 RMS(Cart)=  0.00000000 RMS(Int)=  0.00000000
 ClnCor:  largest displacement from symmetrization is 9.61D-14 for atom     4.
 Variable       Old X    -DE/DX   Delta X   Delta X   Delta X     New X
                                 (Linear)    (Quad)   (Total)
    R1        2.68640  -0.00000   0.00000  -0.00000  -0.00000   2.68640
    R2        2.68640  -0.00000   0.00000  -0.00000  -0.00000   2.68640
    R3        2.68640  -0.00000   0.00000  -0.00000  -0.00000   2.68640
    A1        2.09440  -0.00000   0.00000  -0.00000   0.00000   2.09440
    A2        2.09440   0.00000   0.00000   0.00000   0.00000   2.09440
    A3        2.09440   0.00000   0.00000  -0.00000  -0.00000   2.09440
    D1        3.14159  -0.00000   0.00000   0.00000   0.00000   3.14159
         Item               Value     Threshold  Converged?
 Maximum Force            0.000001     0.000450     YES
 RMS     Force            0.000001     0.000300     YES
 Maximum Displacement     0.000003     0.001800     YES
 RMS     Displacement     0.000002     0.001200     YES
 Predicted change in Energy=-6.644799D-12
 Optimization completed.
    -- Stationary point found.
                           ----------------------------
                           !   Optimized Parameters   !
                           ! (Angstroms and Degrees)  !
 --------------------------                            --------------------------
 ! Name  Definition              Value          Derivative Info.                !
 --------------------------------------------------------------------------------
 ! R1    R(1,2)                  1.4216         -DE/DX =    0.0                 !
 ! R2    R(1,3)                  1.4216         -DE/DX =    0.0                 !
 ! R3    R(1,4)                  1.4216         -DE/DX =    0.0                 !
 ! A1    A(2,1,3)              120.0            -DE/DX =    0.0                 !
 ! A2    A(2,1,4)              120.0            -DE/DX =    0.0                 !
 ! A3    A(3,1,4)              120.0            -DE/DX =    0.0                 !
 ! D1    D(2,1,4,3)            180.0            -DE/DX =    0.0                 !
 --------------------------------------------------------------------------------
 GradGradGradGradGradGradGradGradGradGradGradGradGradGradGradGradGradGrad

 Dipole is zero, so no output in dipole orientation.

 ----------------------------------------------------------------------

 Electric dipole moment (input orientation):
 (Debye = 10**-18 statcoulomb cm , SI units = C m)
                  (au)            (Debye)         (10**-30 SI)
   Tot        0.000000D+00      0.000000D+00      0.000000D+00
   x          0.000000D+00      0.000000D+00      0.000000D+00
   y          0.000000D+00      0.000000D+00      0.000000D+00
   z          0.000000D+00      0.000000D+00      0.000000D+00

 Dipole polarizability, Alpha (input orientation).
 (esu units = cm**3 , SI units = C**2 m**2 J**-1)
 Alpha(0;0):
               (au)            (10**-24 esu)      (10**-40 SI)
   iso        0.175019D+02      0.259351D+01      0.288567D+01
   aniso      0.266785D+02      0.395334D+01      0.439869D+01
   xx         0.860907D+01      0.127573D+01      0.141944D+01
   yx         0.000000D+00      0.000000D+00      0.000000D+00
   yy         0.860907D+01      0.127573D+01      0.141944D+01
   zx         0.000000D+00      0.000000D+00      0.000000D+00
   zy         0.000000D+00      0.000000D+00      0.000000D+00
   zz         0.352875D+02      0.522908D+01      0.581813D+01

 First dipole hyperpolarizability, Beta (input orientation).
 ||, _|_  parallel and perpendicular components, (z) with respect to z axis,
 vector components x,y,z.  Values do not include the 1/n! factor of 1/2.
 (esu units = statvolt**-1 cm**4 , SI units = C**3 m**3 J**-2)
 Beta(0;0,0):
               (au)            (10**-30 esu)      (10**-50 SI)
   || (z)     0.000000D+00      0.000000D+00      0.000000D+00
   _|_(z)     0.000000D+00      0.000000D+00      0.000000D+00
   x          0.000000D+00      0.000000D+00      0.000000D+00
   y          0.000000D+00      0.000000D+00      0.000000D+00
   z          0.000000D+00      0.000000D+00      0.000000D+00
   ||         0.000000D+00      0.000000D+00      0.000000D+00
   xxx       -0.564494D+00     -0.487679D-02     -0.180997D-02
   xxy        0.000000D+00      0.000000D+00      0.000000D+00
   yxy        0.564494D+00      0.487679D-02      0.180997D-02
   yyy        0.000000D+00      0.000000D+00      0.000000D+00
   xxz        0.000000D+00      0.000000D+00      0.000000D+00
   yxz        0.000000D+00      0.000000D+00      0.000000D+00
   yyz        0.000000D+00      0.000000D+00      0.000000D+00
   zxz        0.000000D+00      0.000000D+00      0.000000D+00
   zyz        0.000000D+00      0.000000D+00      0.000000D+00
   zzz        0.000000D+00      0.000000D+00      0.000000D+00

 ----------------------------------------------------------------------
 1\1\GINC-IISERK51\Freq\UHF\3-21G\B1F3(1-,2)\GAUSSIAN\16-Jun-2025\0\\#N
  Geom=AllCheck Guess=TCheck SCRF=Check GenChk UHF/3-21G Freq\\MX3- pla
 nar opt\\-1,2\B,1.01076502,0.05459269,0.\F,0.2999736453,1.2857194645,0
 .\F,0.2999736453,-1.1765340845,0.\F,2.4323477693,0.05459269,0.\\Versio
 n=EM64L-G16RevB.01\State=2-A2"\HF=-321.327546\S2=0.757255\S2-1=0.\S2A=
 0.750028\RMSD=6.780e-10\RMSF=6.926e-07\ZeroPoint=0.0098019\Thermal=0.0
 133452\Dipole=0.,0.,0.\DipoleDeriv=1.2494356,0.,0.,0.,1.2494357,0.,0.,
 0.,-5.9351166,-0.6745482,0.1303605,0.,0.1303605,-0.8250756,0.,0.,0.,1.
 6450389,-0.6745482,-0.1303605,0.,-0.1303605,-0.8250756,0.,0.,0.,1.6450
 389,-0.9003393,0.,0.,0.,-0.5992846,0.,0.,0.,1.6450389\Polar=8.6090739,
 0.,8.6090739,0.,0.,35.287548\PolarDeriv=-0.2055605,0.0000002,0.2055603
 ,0.,0.,-0.0000016,0.,0.2055601,0.0000005,0.,0.,0.0000029,0.,0.,0.,0.,0
 .,0.,-2.140672,1.7107235,-0.3023384,0.,0.,3.1346471,0.4049856,-1.05620
 65,3.8264325,0.,0.,-5.429368,0.,0.,0.,3.3103095,-5.7336242,0.,-2.14067
 2,-1.7107235,-0.3023384,0.,0.,3.1346471,-0.4049856,-1.0562065,-3.82643
 25,0.,0.,5.429368,0.,0.,0.,3.3103095,5.7336242,0.,4.4869036,0.,0.39911
 72,0.,0.,-6.2692942,0.,1.9068534,0.,0.,0.,0.,0.,0.,0.,-6.620619,0.,0.\
 HyperPolar=-0.5644944,0.,0.5644944,0.,0.,0.,0.,0.,0.,0.\Quadrupole=-1.
 3087952,-1.3087952,2.6175904,0.,0.,0.\PG=D03H [O(B1),3C2(F1)]\NImag=1\
 \0.58400164,0.,0.58400164,0.,0.,-1.17803146,-0.12143682,0.12683875,0.,
 0.13236989,0.12683875,-0.26789760,0.,-0.14706981,0.30219148,0.,0.,0.39
 267715,0.,0.,-0.13089203,-0.12143681,-0.12683875,0.,0.01205409,0.00695
 340,0.,0.13236989,-0.12683877,-0.26789761,0.,-0.00695340,-0.03466756,0
 .,0.14706981,0.30219148,0.,0.,0.39267715,0.,0.,-0.13089256,0.,0.,-0.13
 089203,-0.34112800,0.,0.,-0.02298715,0.01327767,0.,-0.02298715,-0.0132
 7767,0.,0.38710227,0.00000001,-0.04820642,0.,0.02718447,0.00037368,0.,
 -0.02718447,0.00037368,0.,0.,0.04745909,0.,0.,0.39267715,0.,0.,-0.1308
 9256,0.,0.,-0.13089256,0.,0.,-0.13089203\\0.,0.,0.,-0.00000069,0.00000
 120,0.,-0.00000069,-0.00000120,0.,0.00000139,0.,0.\\\@


 YOU SHOULDN'T LET PEOPLE DRIVE YOU CRAZY
 WHEN YOU KNOW IT'S WITHIN WALKING DISTANCE.
 Job cpu time:       0 days  0 hours  0 minutes  1.0 seconds.
 Elapsed time:       0 days  0 hours  0 minutes  0.9 seconds.
 File lengths (MBytes):  RWF=      6 Int=      0 D2E=      0 Chk=      1 Scr=      1
 Normal termination of Gaussian 16 at Mon Jun 16 20:00:02 2025.
