 Entering Gaussian System, Link 0=g16
 Input=/home/gaussian/Documents/Summer_Internship/Acid_Base_adduct/Acid/BF3/ideal_pyramid_MX3/BF3_pyramid_sp.com
 Output=/home/gaussian/Documents/Summer_Internship/Acid_Base_adduct/Acid/BF3/ideal_pyramid_MX3/BF3_pyramid_sp.log
 Initial command:
 /usr/local/g16/l1.exe "/home/gaussian/tmp/Gau-77700.inp" -scrdir="/home/gaussian/tmp/"
 Entering Link 1 = /usr/local/g16/l1.exe PID=     77703.
  
 Copyright (c) 1988-2017, Gaussian, Inc.  All Rights Reserved.
  
 This is part of the Gaussian(R) 16 program.  It is based on
 the Gaussian(R) 09 system (copyright 2009, Gaussian, Inc.),
 the Gaussian(R) 03 system (copyright 2003, Gaussian, Inc.),
 the Gaussian(R) 98 system (copyright 1998, Gaussian, Inc.),
 the Gaussian(R) 94 system (copyright 1995, Gaussian, Inc.),
 the Gaussian 92(TM) system (copyright 1992, Gaussian, Inc.),
 the Gaussian 90(TM) system (copyright 1990, Gaussian, Inc.),
 the Gaussian 88(TM) system (copyright 1988, Gaussian, Inc.),
 the Gaussian 86(TM) system (copyright 1986, Carnegie Mellon
 University), and the Gaussian 82(TM) system (copyright 1983,
 Carnegie Mellon University). Gaussian is a federally registered
 trademark of Gaussian, Inc.
  
 This software contains proprietary and confidential information,
 including trade secrets, belonging to Gaussian, Inc.
  
 This software is provided under written license and may be
 used, copied, transmitted, or stored only in accord with that
 written license.
  
 The following legend is applicable only to US Government
 contracts under FAR:
  
                    RESTRICTED RIGHTS LEGEND
  
 Use, reproduction and disclosure by the US Government is
 subject to restrictions as set forth in subparagraphs (a)
 and (c) of the Commercial Computer Software - Restricted
 Rights clause in FAR 52.227-19.
  
 Gaussian, Inc.
 340 Quinnipiac St., Bldg. 40, Wallingford CT 06492
  
  
 ---------------------------------------------------------------
 Warning -- This program may not be used in any manner that
 competes with the business of Gaussian, Inc. or will provide
 assistance to any competitor of Gaussian, Inc.  The licensee
 of this program is prohibited from giving any competitor of
 Gaussian, Inc. access to this program.  By using this program,
 the user acknowledges that Gaussian, Inc. is engaged in the
 business of creating and licensing software in the field of
 computational chemistry and represents and warrants to the
 licensee that it is not a competitor of Gaussian, Inc. and that
 it will not use this program in any manner prohibited above.
 ---------------------------------------------------------------
  

 Cite this work as:
 Gaussian 16, Revision B.01,
 M. J. Frisch, G. W. Trucks, H. B. Schlegel, G. E. Scuseria, 
 M. A. Robb, J. R. Cheeseman, G. Scalmani, V. Barone, 
 G. A. Petersson, H. Nakatsuji, X. Li, M. Caricato, A. V. Marenich, 
 J. Bloino, B. G. Janesko, R. Gomperts, B. Mennucci, H. P. Hratchian, 
 J. V. Ortiz, A. F. Izmaylov, J. L. Sonnenberg, D. Williams-Young, 
 F. Ding, F. Lipparini, F. Egidi, J. Goings, B. Peng, A. Petrone, 
 T. Henderson, D. Ranasinghe, V. G. Zakrzewski, J. Gao, N. Rega, 
 G. Zheng, W. Liang, M. Hada, M. Ehara, K. Toyota, R. Fukuda, 
 J. Hasegawa, M. Ishida, T. Nakajima, Y. Honda, O. Kitao, H. Nakai, 
 T. Vreven, K. Throssell, J. A. Montgomery, Jr., J. E. Peralta, 
 F. Ogliaro, M. J. Bearpark, J. J. Heyd, E. N. Brothers, K. N. Kudin, 
 V. N. Staroverov, T. A. Keith, R. Kobayashi, J. Normand, 
 K. Raghavachari, A. P. Rendell, J. C. Burant, S. S. Iyengar, 
 J. Tomasi, M. Cossi, J. M. Millam, M. Klene, C. Adamo, R. Cammi, 
 J. W. Ochterski, R. L. Martin, K. Morokuma, O. Farkas, 
 J. B. Foresman, and D. J. Fox, Gaussian, Inc., Wallingford CT, 2016.
 
 ******************************************
 Gaussian 16:  EM64L-G16RevB.01 20-Dec-2017
                16-Jun-2025 
 ******************************************
 %chk=BF3_pyramid_sp.chk
 -------------------------------------
 # hf/3-21g pop=full geom=connectivity
 -------------------------------------
 1/38=1,57=2,172=1/1;
 2/12=2,17=6,18=5,40=1/2;
 3/5=5,11=9,25=1,30=1/1,2,3;
 4//1;
 5/5=2,38=5/2;
 6/7=3,28=1/1;
 99/5=1,9=1/99;
 --------------
 BF3 pyramid sp
 --------------
 Symbolic Z-matrix:
 Charge =  0 Multiplicity = 1
 B                     0.        0.        0.39448 
 F                     0.        1.32238  -0.07305 
 F                    -1.14522  -0.66119  -0.07305 
 F                     1.14522  -0.66119  -0.07305 
 
                          Input orientation:                          
 ---------------------------------------------------------------------
 Center     Atomic      Atomic             Coordinates (Angstroms)
 Number     Number       Type             X           Y           Z
 ---------------------------------------------------------------------
      1          5           0        0.000000    0.000000    0.394480
      2          9           0        0.000000    1.322380   -0.073052
      3          9           0       -1.145215   -0.661190   -0.073052
      4          9           0        1.145215   -0.661190   -0.073052
 ---------------------------------------------------------------------
                    Distance matrix (angstroms):
                    1          2          3          4
     1  B    0.000000
     2  F    1.402596   0.000000
     3  F    1.402596   2.290430   0.000000
     4  F    1.402596   2.290430   2.290430   0.000000
 Stoichiometry    BF3
 Framework group  C3V[C3(B),3SGV(F)]
 Deg. of freedom     2
 Full point group                 C3V     NOp   6
 Largest Abelian subgroup         CS      NOp   2
 Largest concise Abelian subgroup CS      NOp   2
                         Standard orientation:                         
 ---------------------------------------------------------------------
 Center     Atomic      Atomic             Coordinates (Angstroms)
 Number     Number       Type             X           Y           Z
 ---------------------------------------------------------------------
      1          5           0        0.000000    0.000000    0.394480
      2          9           0        0.000000    1.322380   -0.073052
      3          9           0       -1.145215   -0.661190   -0.073052
      4          9           0        1.145215   -0.661190   -0.073052
 ---------------------------------------------------------------------
 Rotational constants (GHZ):           9.7468796           9.7468796           5.0706811
 Standard basis: 3-21G (6D, 7F)
 There are    23 symmetry adapted cartesian basis functions of A'  symmetry.
 There are    13 symmetry adapted cartesian basis functions of A"  symmetry.
 There are    23 symmetry adapted basis functions of A'  symmetry.
 There are    13 symmetry adapted basis functions of A"  symmetry.
    36 basis functions,    60 primitive gaussians,    36 cartesian basis functions
    16 alpha electrons       16 beta electrons
       nuclear repulsion energy       107.0757036189 Hartrees.
 NAtoms=    4 NActive=    4 NUniq=    2 SFac= 4.00D+00 NAtFMM=   60 NAOKFM=F Big=F
 Integral buffers will be    131072 words long.
 Raffenetti 1 integral format.
 Two-electron integral symmetry is turned on.
 One-electron integrals computed using PRISM.
 NBasis=    36 RedAO= T EigKep=  8.40D-02  NBF=    23    13
 NBsUse=    36 1.00D-06 EigRej= -1.00D+00 NBFU=    23    13
 ExpMin= 1.24D-01 ExpMax= 4.14D+02 ExpMxC= 4.14D+02 IAcc=3 IRadAn=         5 AccDes= 0.00D+00
 Harris functional with IExCor=  205 and IRadAn=       5 diagonalized for initial guess.
 HarFok:  IExCor=  205 AccDes= 0.00D+00 IRadAn=         5 IDoV= 1 UseB2=F ITyADJ=14
 ICtDFT=  3500011 ScaDFX=  1.000000  1.000000  1.000000  1.000000
 FoFCou: FMM=F IPFlag=           0 FMFlag=      100000 FMFlg1=           0
         NFxFlg=           0 DoJE=T BraDBF=F KetDBF=T FulRan=T
         wScrn=  0.000000 ICntrl=       500 IOpCl=  0 I1Cent=   200000004 NGrid=           0
         NMat0=    1 NMatS0=      1 NMatT0=    0 NMatD0=    1 NMtDS0=    0 NMtDT0=    0
 Petite list used in FoFCou.
 Initial guess orbital symmetries:
       Occupied  (A1) (E) (E) (A1) (A1) (E) (E) (A1) (E) (E) (A1)
                 (E) (E) (E) (E) (A2)
       Virtual   (A1) (E) (E) (A1) (A1) (E) (E) (A1) (E) (E) (A2)
                 (E) (E) (A1) (A1) (E) (E) (E) (E) (A1)
 The electronic state of the initial guess is 1-A1.
 Keep R1 ints in memory in symmetry-blocked form, NReq=1029910.
 Requested convergence on RMS density matrix=1.00D-08 within 128 cycles.
 Requested convergence on MAX density matrix=1.00D-06.
 Requested convergence on             energy=1.00D-06.
 No special actions if energy rises.
 SCF Done:  E(RHF) =  -321.392248183     A.U. after   10 cycles
            NFock= 10  Conv=0.32D-08     -V/T= 2.0055

 **********************************************************************

            Population analysis using the SCF Density.

 **********************************************************************

 Orbital symmetries:
       Occupied  (A1) (E) (E) (A1) (A1) (E) (E) (A1) (E) (E) (A1)
                 (E) (E) (E) (E) (A2)
       Virtual   (A1) (E) (E) (A1) (A1) (E) (E) (A1) (E) (E) (A2)
                 (A1) (E) (E) (A1) (E) (E) (E) (E) (A1)
 The electronic state is 1-A1.
 Alpha  occ. eigenvalues --  -26.19559 -26.19473 -26.19473  -7.80958  -1.64022
 Alpha  occ. eigenvalues --   -1.58803  -1.58803  -0.81364  -0.74641  -0.74641
 Alpha  occ. eigenvalues --   -0.71047  -0.64739  -0.64739  -0.63359  -0.63359
 Alpha  occ. eigenvalues --   -0.62339
 Alpha virt. eigenvalues --    0.01724   0.33915   0.33915   0.41988   0.56067
 Alpha virt. eigenvalues --    0.68001   0.68001   0.84604   2.14211   2.14211
 Alpha virt. eigenvalues --    2.31863   2.32381   2.33717   2.33717   2.41261
 Alpha virt. eigenvalues --    2.47922   2.47922   3.79584   3.79584   4.27521
     Molecular Orbital Coefficients:
                           1         2         3         4         5
                        (A1)--O   (E)--O    (E)--O    (A1)--O   (A1)--O
     Eigenvalues --   -26.19559 -26.19473 -26.19473  -7.80958  -1.64022
   1 1   B  1S         -0.00080   0.00000  -0.00000   0.98739  -0.08012
   2        2S          0.00204   0.00000   0.00000   0.08908   0.08954
   3        2PX         0.00000  -0.00345   0.00000   0.00000   0.00000
   4        2PY        -0.00000   0.00000   0.00345  -0.00000   0.00000
   5        2PZ        -0.00289   0.00000  -0.00000  -0.00323  -0.02821
   6        3S          0.01604   0.00000   0.00000  -0.02128   0.03273
   7        3PX         0.00000  -0.00791   0.00000   0.00000   0.00000
   8        3PY        -0.00000   0.00000   0.00791   0.00000   0.00000
   9        3PZ        -0.00627   0.00000  -0.00000  -0.00207   0.01028
  10 2   F  1S          0.56710   0.00000   0.80176   0.00006  -0.13832
  11        2S          0.05692   0.00000   0.07822   0.00224   0.13145
  12        2PX         0.00000  -0.00056   0.00000   0.00000   0.00000
  13        2PY        -0.00176   0.00000  -0.00167  -0.00138  -0.03609
  14        2PZ         0.00023   0.00000   0.00096   0.00028   0.01063
  15        3S         -0.02303   0.00000  -0.02644  -0.00484   0.43595
  16        3PX         0.00000   0.00225   0.00000   0.00000   0.00000
  17        3PY         0.00495   0.00000   0.00308   0.00808  -0.05083
  18        3PZ         0.00010   0.00000  -0.00202  -0.00205   0.01587
  19 3   F  1S          0.56710   0.69434  -0.40088   0.00006  -0.13832
  20        2S          0.05692   0.06774  -0.03911   0.00224   0.13145
  21        2PX         0.00152   0.00111  -0.00097   0.00119   0.03126
  22        2PY         0.00088   0.00097   0.00000   0.00069   0.01805
  23        2PZ         0.00023   0.00084  -0.00048   0.00028   0.01063
  24        3S         -0.02303  -0.02290   0.01322  -0.00484   0.43595
  25        3PX        -0.00429  -0.00175   0.00230  -0.00700   0.04402
  26        3PY        -0.00248  -0.00230  -0.00091  -0.00404   0.02542
  27        3PZ         0.00010  -0.00175   0.00101  -0.00205   0.01587
  28 4   F  1S          0.56710  -0.69434  -0.40088   0.00006  -0.13832
  29        2S          0.05692  -0.06774  -0.03911   0.00224   0.13145
  30        2PX        -0.00152   0.00111   0.00097  -0.00119  -0.03126
  31        2PY         0.00088  -0.00097   0.00000   0.00069   0.01805
  32        2PZ         0.00023  -0.00084  -0.00048   0.00028   0.01063
  33        3S         -0.02303   0.02290   0.01322  -0.00484   0.43595
  34        3PX         0.00429  -0.00175  -0.00230   0.00700  -0.04402
  35        3PY        -0.00248   0.00230  -0.00091  -0.00404   0.02542
  36        3PZ         0.00010   0.00175   0.00101  -0.00205   0.01587
                           6         7         8         9        10
                        (E)--O    (E)--O    (A1)--O   (E)--O    (E)--O
     Eigenvalues --    -1.58803  -1.58803  -0.81364  -0.74641  -0.74641
   1 1   B  1S         -0.00000   0.00000   0.13476  -0.00000   0.00000
   2        2S          0.00000   0.00000  -0.24390  -0.00000   0.00000
   3        2PX         0.00000  -0.08598   0.00000   0.00000   0.25910
   4        2PY         0.08598   0.00000  -0.00000  -0.25910   0.00000
   5        2PZ        -0.00000   0.00000   0.07914  -0.00000   0.00000
   6        3S          0.00000   0.00000  -0.10272   0.00000   0.00000
   7        3PX         0.00000   0.00226   0.00000   0.00000   0.06455
   8        3PY        -0.00226   0.00000   0.00000  -0.06455   0.00000
   9        3PZ        -0.00000   0.00000  -0.01882  -0.00000   0.00000
  10 2   F  1S         -0.20480   0.00000  -0.04733  -0.04087   0.00000
  11        2S          0.19810   0.00000   0.05135   0.03883   0.00000
  12        2PX         0.00000  -0.00719   0.00000   0.00000   0.25763
  13        2PY        -0.03668   0.00000   0.24699   0.26807   0.00000
  14        2PZ         0.01636   0.00000  -0.03084  -0.10404   0.00000
  15        3S          0.64713   0.00000   0.17831   0.18442   0.00000
  16        3PX         0.00000  -0.00791   0.00000   0.00000   0.28225
  17        3PY        -0.04929   0.00000   0.27041   0.28136   0.00000
  18        3PZ         0.02496   0.00000  -0.03208  -0.10638   0.00000
  19 3   F  1S          0.10240  -0.17736  -0.04733   0.02044  -0.03540
  20        2S         -0.09905   0.17156   0.05135  -0.01942   0.03363
  21        2PX        -0.01899   0.02571  -0.21390   0.22763  -0.13664
  22        2PY        -0.00378   0.01899  -0.12350  -0.12621  -0.22763
  23        2PZ        -0.00818   0.01416  -0.03084   0.05202  -0.09010
  24        3S         -0.32356   0.56043   0.17831  -0.09221   0.15971
  25        3PX        -0.02477   0.03499  -0.23419   0.24405  -0.14046
  26        3PY        -0.00639   0.02477  -0.13521  -0.14135  -0.24405
  27        3PZ        -0.01248   0.02162  -0.03208   0.05319  -0.09213
  28 4   F  1S          0.10240   0.17736  -0.04733   0.02044   0.03540
  29        2S         -0.09905  -0.17156   0.05135  -0.01942  -0.03363
  30        2PX         0.01899   0.02571   0.21390  -0.22763  -0.13664
  31        2PY        -0.00378  -0.01899  -0.12350  -0.12621   0.22763
  32        2PZ        -0.00818  -0.01416  -0.03084   0.05202   0.09010
  33        3S         -0.32356  -0.56043   0.17831  -0.09221  -0.15971
  34        3PX         0.02477   0.03499   0.23419  -0.24405  -0.14046
  35        3PY        -0.00639  -0.02477  -0.13521  -0.14135   0.24405
  36        3PZ        -0.01248  -0.02162  -0.03208   0.05319   0.09213
                          11        12        13        14        15
                        (A1)--O   (E)--O    (E)--O    (E)--O    (E)--O
     Eigenvalues --    -0.71047  -0.64739  -0.64739  -0.63359  -0.63359
   1 1   B  1S         -0.04749  -0.00000   0.00000   0.00000   0.00000
   2        2S          0.07513   0.00000   0.00000  -0.00000   0.00000
   3        2PX         0.00000   0.00000  -0.11758   0.00000  -0.04685
   4        2PY        -0.00000   0.11758   0.00000  -0.04685   0.00000
   5        2PZ         0.15683   0.00000   0.00000   0.00000   0.00000
   6        3S          0.08314  -0.00000   0.00000   0.00000   0.00000
   7        3PX         0.00000   0.00000   0.05212   0.00000   0.11934
   8        3PY        -0.00000  -0.05212   0.00000   0.11934   0.00000
   9        3PZ         0.16417  -0.00000   0.00000   0.00000   0.00000
  10 2   F  1S          0.00584   0.01294   0.00000   0.00082   0.00000
  11        2S         -0.01140  -0.02002   0.00000   0.00787   0.00000
  12        2PX         0.00000   0.00000   0.28943   0.00000   0.17903
  13        2PY         0.05906  -0.12176   0.00000   0.28499   0.00000
  14        2PZ         0.27002   0.29324   0.00000   0.29202   0.00000
  15        3S         -0.00605  -0.03282   0.00000  -0.04146   0.00000
  16        3PX         0.00000   0.00000   0.33119   0.00000   0.18134
  17        3PY         0.05310  -0.13324   0.00000   0.32318   0.00000
  18        3PZ         0.29379   0.34587   0.00000   0.32453   0.00000
  19 3   F  1S          0.00584  -0.00647   0.01120  -0.00041  -0.00071
  20        2S         -0.01140   0.01001  -0.01733  -0.00393  -0.00681
  21        2PX        -0.05115   0.07261   0.16368   0.04588   0.25850
  22        2PY        -0.02953  -0.24751  -0.07261   0.20552   0.04588
  23        2PZ         0.27002  -0.14662   0.25395  -0.14601  -0.25290
  24        3S         -0.00605   0.01641  -0.02842   0.02073   0.03591
  25        3PX        -0.04598   0.08572   0.18273   0.06142   0.28772
  26        3PY        -0.02655  -0.28171  -0.08572   0.21680   0.06142
  27        3PZ         0.29379  -0.17293   0.29953  -0.16227  -0.28105
  28 4   F  1S          0.00584  -0.00647  -0.01120  -0.00041   0.00071
  29        2S         -0.01140   0.01001   0.01733  -0.00393   0.00681
  30        2PX         0.05115  -0.07261   0.16368  -0.04588   0.25850
  31        2PY        -0.02953  -0.24751   0.07261   0.20552  -0.04588
  32        2PZ         0.27002  -0.14662  -0.25395  -0.14601   0.25290
  33        3S         -0.00605   0.01641   0.02842   0.02073  -0.03591
  34        3PX         0.04598  -0.08572   0.18273  -0.06142   0.28772
  35        3PY        -0.02655  -0.28171   0.08572   0.21680  -0.06142
  36        3PZ         0.29379  -0.17293  -0.29953  -0.16227   0.28105
                          16        17        18        19        20
                        (A2)--O   (A1)--V   (E)--V    (E)--V    (A1)--V
     Eigenvalues --    -0.62339   0.01724   0.33915   0.33915   0.41988
   1 1   B  1S          0.00000  -0.11799   0.00000   0.00000  -0.14336
   2        2S          0.00000   0.04177   0.00000  -0.00000  -0.04626
   3        2PX         0.00000   0.00000   0.25615   0.00000   0.00000
   4        2PY         0.00000  -0.00000   0.00000   0.25615  -0.00000
   5        2PZ         0.00000   0.37234   0.00000   0.00000  -0.09650
   6        3S          0.00000   0.74414   0.00000  -0.00000   1.25032
   7        3PX        -0.00000   0.00000   1.24149   0.00000   0.00000
   8        3PY         0.00000  -0.00000   0.00000   1.24149   0.00000
   9        3PZ         0.00000   0.41579   0.00000   0.00000  -0.93232
  10 2   F  1S          0.00000   0.02119   0.00000   0.07242   0.06647
  11        2S          0.00000  -0.01366   0.00000  -0.02611  -0.04599
  12        2PX         0.32195   0.00000  -0.15420   0.00000   0.00000
  13        2PY         0.00000   0.04252   0.00000   0.07226   0.14082
  14        2PZ         0.00000  -0.15361   0.00000  -0.10291   0.05454
  15        3S          0.00000  -0.14189   0.00000  -0.67142  -0.53475
  16        3PX         0.35519   0.00000  -0.26764   0.00000   0.00000
  17        3PY         0.00000   0.06470   0.00000   0.18611   0.27901
  18        3PZ         0.00000  -0.22670   0.00000  -0.17176   0.07887
  19 3   F  1S         -0.00000   0.02119  -0.06272  -0.03621   0.06647
  20        2S          0.00000  -0.01366   0.02261   0.01305  -0.04599
  21        2PX        -0.16098  -0.03683   0.01564   0.09806  -0.12196
  22        2PY         0.27882  -0.02126   0.09806  -0.09759  -0.07041
  23        2PZ         0.00000  -0.15361   0.08913   0.05146   0.05454
  24        3S          0.00000  -0.14189   0.58147   0.33571  -0.53475
  25        3PX        -0.17760  -0.05603   0.07267   0.19648  -0.24163
  26        3PY         0.30760  -0.03235   0.19648  -0.15420  -0.13951
  27        3PZ         0.00000  -0.22670   0.14875   0.08588   0.07887
  28 4   F  1S          0.00000   0.02119   0.06272  -0.03621   0.06647
  29        2S         -0.00000  -0.01366  -0.02261   0.01305  -0.04599
  30        2PX        -0.16098   0.03683   0.01564  -0.09806   0.12196
  31        2PY        -0.27882  -0.02126  -0.09806  -0.09759  -0.07041
  32        2PZ        -0.00000  -0.15361  -0.08913   0.05146   0.05454
  33        3S         -0.00000  -0.14189  -0.58147   0.33571  -0.53475
  34        3PX        -0.17760   0.05603   0.07267  -0.19648   0.24163
  35        3PY        -0.30760  -0.03235  -0.19648  -0.15420  -0.13951
  36        3PZ        -0.00000  -0.22670  -0.14875   0.08588   0.07887
                          21        22        23        24        25
                        (A1)--V   (E)--V    (E)--V    (A1)--V   (E)--V
     Eigenvalues --     0.56067   0.68001   0.68001   0.84604   2.14211
   1 1   B  1S         -0.00033  -0.00000   0.00000  -0.09459   0.00000
   2        2S          0.46409  -0.00000   0.00000   1.57225   0.00000
   3        2PX         0.00000   0.00000   1.26371   0.00000   0.06760
   4        2PY         0.00000   1.26371   0.00000   0.00000   0.00000
   5        2PZ         1.08719   0.00000   0.00000  -0.38876   0.00000
   6        3S         -0.70652   0.00000   0.00000  -1.22626   0.00000
   7        3PX         0.00000   0.00000  -0.87227   0.00000   0.12239
   8        3PY        -0.00000  -0.87227   0.00000  -0.00000   0.00000
   9        3PZ        -0.84596  -0.00000   0.00000   0.31481   0.00000
  10 2   F  1S         -0.01469   0.01662   0.00000   0.00650   0.00000
  11        2S          0.01428  -0.03546   0.00000  -0.02616   0.00000
  12        2PX         0.00000   0.00000  -0.02062   0.00000   0.55606
  13        2PY        -0.04219   0.21179   0.00000   0.18079   0.00000
  14        2PZ        -0.00303  -0.07983   0.00000  -0.06293   0.00000
  15        3S          0.10017   0.06245   0.00000   0.13618   0.00000
  16        3PX         0.00000   0.00000   0.03540   0.00000  -0.54439
  17        3PY        -0.08297   0.31473   0.00000   0.13922   0.00000
  18        3PZ         0.07029  -0.10507   0.00000  -0.06995   0.00000
  19 3   F  1S         -0.01469  -0.00831  -0.01439   0.00650  -0.00961
  20        2S          0.01428   0.01773   0.03071  -0.02616   0.03900
  21        2PX         0.03653   0.10064   0.15369  -0.15657  -0.05486
  22        2PY         0.02109   0.03748   0.10064  -0.09039  -0.35272
  23        2PZ        -0.00303   0.03992   0.06913  -0.06293   0.47838
  24        3S          0.10017  -0.03123  -0.05408   0.13618   0.02991
  25        3PX         0.07186   0.12096   0.24490  -0.12056   0.06578
  26        3PY         0.04149   0.10523   0.12096  -0.06961   0.35228
  27        3PZ         0.07029   0.05254   0.09099  -0.06995  -0.43469
  28 4   F  1S         -0.01469  -0.00831   0.01439   0.00650   0.00961
  29        2S          0.01428   0.01773  -0.03071  -0.02616  -0.03900
  30        2PX        -0.03653  -0.10064   0.15369   0.15657  -0.05486
  31        2PY         0.02109   0.03748  -0.10064  -0.09039   0.35272
  32        2PZ        -0.00303   0.03992  -0.06913  -0.06293  -0.47838
  33        3S          0.10017  -0.03123   0.05408   0.13618  -0.02991
  34        3PX        -0.07186  -0.12096   0.24490   0.12056   0.06578
  35        3PY         0.04149   0.10523  -0.12096  -0.06961  -0.35228
  36        3PZ         0.07029   0.05254  -0.09099  -0.06995   0.43469
                          26        27        28        29        30
                        (E)--V    (A2)--V   (A1)--V   (E)--V    (E)--V
     Eigenvalues --     2.14211   2.31863   2.32381   2.33717   2.33717
   1 1   B  1S         -0.00000   0.00000  -0.00664   0.00000  -0.00000
   2        2S          0.00000   0.00000   0.15323   0.00000   0.00000
   3        2PX         0.00000   0.00000   0.00000   0.26265   0.00000
   4        2PY        -0.06760   0.00000   0.00000   0.00000  -0.26265
   5        2PZ        -0.00000   0.00000  -0.14074   0.00000  -0.00000
   6        3S          0.00000   0.00000   0.12100   0.00000   0.00000
   7        3PX         0.00000   0.00000   0.00000   0.24951   0.00000
   8        3PY        -0.12239   0.00000   0.00000   0.00000  -0.24951
   9        3PZ        -0.00000   0.00000  -0.35031   0.00000  -0.00000
  10 2   F  1S         -0.01110   0.00000   0.02373   0.00000  -0.03302
  11        2S          0.04504   0.00000  -0.11434   0.00000   0.15504
  12        2PX         0.00000  -0.58436   0.00000   0.51124   0.00000
  13        2PY         0.25850   0.00000  -0.32653   0.00000   0.17233
  14        2PZ         0.55238   0.00000  -0.47545   0.00000  -0.61052
  15        3S          0.03454   0.00000  -0.02820   0.00000   0.05340
  16        3PX         0.00000   0.58946   0.00000  -0.56605   0.00000
  17        3PY        -0.26917   0.00000   0.40358   0.00000  -0.24949
  18        3PZ        -0.50194   0.00000   0.50522   0.00000   0.65865
  19 3   F  1S          0.00555  -0.00000   0.02373  -0.02859   0.01651
  20        2S         -0.02252   0.00000  -0.11434   0.13427  -0.07752
  21        2PX         0.35272   0.29218   0.28278  -0.00144   0.29600
  22        2PY        -0.35242  -0.50607   0.16327  -0.29600  -0.34035
  23        2PZ        -0.27619  -0.00000  -0.47545  -0.52873   0.30526
  24        3S         -0.01727   0.00000  -0.02820   0.04625  -0.02670
  25        3PX        -0.35228  -0.29473  -0.34951   0.04561  -0.35314
  26        3PY         0.34100   0.51049  -0.20179   0.35314   0.36217
  27        3PZ         0.25097   0.00000   0.50522   0.57041  -0.32932
  28 4   F  1S          0.00555   0.00000   0.02373   0.02859   0.01651
  29        2S         -0.02252  -0.00000  -0.11434  -0.13427  -0.07752
  30        2PX        -0.35272   0.29218  -0.28278  -0.00144  -0.29600
  31        2PY        -0.35242   0.50607   0.16327   0.29600  -0.34035
  32        2PZ        -0.27619   0.00000  -0.47545   0.52873   0.30526
  33        3S         -0.01727  -0.00000  -0.02820  -0.04625  -0.02670
  34        3PX         0.35228  -0.29473   0.34951   0.04561   0.35314
  35        3PY         0.34100  -0.51049  -0.20179  -0.35314   0.36217
  36        3PZ         0.25097  -0.00000   0.50522  -0.57041  -0.32932
                          31        32        33        34        35
                        (A1)--V   (E)--V    (E)--V    (E)--V    (E)--V
     Eigenvalues --     2.41261   2.47922   2.47922   3.79584   3.79584
   1 1   B  1S          0.01478   0.00000   0.00000   0.00000  -0.00000
   2        2S          0.69095   0.00000   0.00000   0.00000   0.00000
   3        2PX         0.00000   0.38541   0.00000   0.29758   0.00000
   4        2PY        -0.00000   0.00000   0.38541   0.00000  -0.29758
   5        2PZ        -0.22318   0.00000  -0.00000   0.00000  -0.00000
   6        3S         -0.05344   0.00000  -0.00000   0.00000   0.00000
   7        3PX         0.00000  -0.30252   0.00000   0.47551   0.00000
   8        3PY         0.00000   0.00000  -0.30252   0.00000  -0.47551
   9        3PZ         0.15230   0.00000   0.00000   0.00000  -0.00000
  10 2   F  1S          0.02154   0.00000   0.01082   0.00000   0.08995
  11        2S         -0.09242   0.00000  -0.06682   0.00000  -1.26741
  12        2PX         0.00000  -0.32471   0.00000   0.10171   0.00000
  13        2PY        -0.46016   0.00000  -0.76561   0.00000   0.11241
  14        2PZ         0.34538   0.00000   0.04267   0.00000  -0.08832
  15        3S         -0.00147   0.00000   0.07119   0.00000   1.38646
  16        3PX         0.00000   0.36013   0.00000  -0.21413   0.00000
  17        3PY         0.58539   0.00000   0.88703   0.00000  -0.25419
  18        3PZ        -0.39959   0.00000  -0.06361   0.00000   0.18242
  19 3   F  1S          0.02154  -0.00937  -0.00541   0.07790  -0.04498
  20        2S         -0.09242   0.05787   0.03341  -1.09761   0.63371
  21        2PX         0.39851  -0.65538  -0.19091  -0.05888   0.09272
  22        2PY         0.23008  -0.19091  -0.43494  -0.09272  -0.04818
  23        2PZ         0.34538  -0.03695  -0.02134  -0.07649   0.04416
  24        3S         -0.00147  -0.06165  -0.03560   1.20071  -0.69323
  25        3PX        -0.50696   0.75530   0.22815   0.13711  -0.20279
  26        3PY        -0.29269   0.22815   0.49186   0.20279   0.09705
  27        3PZ        -0.39959   0.05509   0.03180   0.15798  -0.09121
  28 4   F  1S          0.02154   0.00937  -0.00541  -0.07790  -0.04498
  29        2S         -0.09242  -0.05787   0.03341   1.09761   0.63371
  30        2PX        -0.39851  -0.65538   0.19091  -0.05888  -0.09272
  31        2PY         0.23008   0.19091  -0.43494   0.09272  -0.04818
  32        2PZ         0.34538   0.03695  -0.02134   0.07649   0.04416
  33        3S         -0.00147   0.06165  -0.03560  -1.20071  -0.69323
  34        3PX         0.50696   0.75530  -0.22815   0.13711   0.20279
  35        3PY        -0.29269  -0.22815   0.49186  -0.20279   0.09705
  36        3PZ        -0.39959  -0.05509   0.03180  -0.15798  -0.09121
                          36
                        (A1)--V
     Eigenvalues --     4.27521
   1 1   B  1S          0.06397
   2        2S         -0.23517
   3        2PX         0.00000
   4        2PY        -0.00000
   5        2PZ         0.23334
   6        3S         -0.93548
   7        3PX         0.00000
   8        3PY        -0.00000
   9        3PZ         0.39511
  10 2   F  1S          0.04840
  11        2S         -0.94544
  12        2PX         0.00000
  13        2PY         0.14785
  14        2PZ         0.02932
  15        3S          1.20230
  16        3PX         0.00000
  17        3PY        -0.39386
  18        3PZ        -0.03872
  19 3   F  1S          0.04840
  20        2S         -0.94544
  21        2PX        -0.12804
  22        2PY        -0.07393
  23        2PZ         0.02932
  24        3S          1.20230
  25        3PX         0.34110
  26        3PY         0.19693
  27        3PZ        -0.03872
  28 4   F  1S          0.04840
  29        2S         -0.94544
  30        2PX         0.12804
  31        2PY        -0.07393
  32        2PZ         0.02932
  33        3S          1.20230
  34        3PX        -0.34110
  35        3PY         0.19693
  36        3PZ        -0.03872
     Density Matrix:
                           1         2         3         4         5
   1 1   B  1S          2.00355
   2        2S          0.08870   0.16218
   3        2PX         0.00000  -0.00000   0.18111
   4        2PY        -0.00000   0.00000  -0.00000   0.18111
   5        2PZ         0.00459  -0.02068   0.00000  -0.00000   0.06335
   6        3S         -0.08288   0.06473   0.00000  -0.00000   0.00802
   7        3PX        -0.00000   0.00000   0.00968  -0.00000  -0.00000
   8        3PY         0.00000  -0.00000   0.00000   0.00968   0.00000
   9        3PZ        -0.02640   0.03530   0.00000   0.00000   0.04799
  10 2   F  1S          0.00807   0.00152  -0.00000  -0.00554  -0.00113
  11        2S         -0.00181  -0.00259   0.00000   0.00904  -0.00321
  12        2PX         0.00000  -0.00000   0.04991  -0.00000   0.00000
  13        2PY         0.06402  -0.11832  -0.00000  -0.20056   0.05968
  14        2PZ        -0.03510   0.05757   0.00000   0.09833   0.07921
  15        3S         -0.03075  -0.01077   0.00000   0.01170   0.00189
  16        3PX         0.00000  -0.00000   0.05273  -0.00000   0.00000
  17        3PY         0.09194  -0.13157  -0.00000  -0.21587   0.06224
  18        3PZ        -0.04315   0.06227   0.00000   0.11033   0.08619
  19 3   F  1S          0.00807   0.00152   0.00479   0.00277  -0.00113
  20        2S         -0.00181  -0.00259  -0.00783  -0.00452  -0.00321
  21        2PX        -0.05544   0.10247  -0.13794  -0.10846  -0.05168
  22        2PY        -0.03201   0.05916  -0.10846  -0.01271  -0.02984
  23        2PZ        -0.03510   0.05757  -0.08515  -0.04916   0.07921
  24        3S         -0.03075  -0.01077  -0.01013  -0.00585   0.00189
  25        3PX        -0.07962   0.11394  -0.14872  -0.11631  -0.05390
  26        3PY        -0.04597   0.06579  -0.11631  -0.01442  -0.03112
  27        3PZ        -0.04315   0.06227  -0.09555  -0.05517   0.08619
  28 4   F  1S          0.00807   0.00152  -0.00479   0.00277  -0.00113
  29        2S         -0.00181  -0.00259   0.00783  -0.00452  -0.00321
  30        2PX         0.05544  -0.10247  -0.13794   0.10846   0.05168
  31        2PY        -0.03201   0.05916   0.10846  -0.01271  -0.02984
  32        2PZ        -0.03510   0.05757   0.08515  -0.04916   0.07921
  33        3S         -0.03075  -0.01077   0.01013  -0.00585   0.00189
  34        3PX         0.07962  -0.11394  -0.14872   0.11631   0.05390
  35        3PY        -0.04597   0.06579   0.11631  -0.01442  -0.03112
  36        3PZ        -0.04315   0.06227   0.09555  -0.05517   0.08619
                           6         7         8         9        10
   6        3S          0.03849
   7        3PX         0.00000   0.04239
   8        3PY        -0.00000   0.00000   0.04239
   9        3PZ         0.03172  -0.00000   0.00000   0.05491
  10 2   F  1S          0.01983   0.00000   0.01773  -0.00625   2.05920
  11        2S         -0.00211  -0.00000  -0.00071  -0.00370   0.06381
  12        2PX        -0.00000   0.10614  -0.00000   0.00000  -0.00000
  13        2PY        -0.04328  -0.00000   0.04625   0.00938  -0.02695
  14        2PZ         0.05192   0.00000   0.05251   0.09003   0.01481
  15        3S         -0.00963  -0.00000  -0.03363   0.00057  -0.48714
  16        3PX        -0.00000   0.11418  -0.00000   0.00000  -0.00000
  17        3PY        -0.05024  -0.00000   0.05498   0.00611  -0.00608
  18        3PZ         0.05657   0.00000   0.05500   0.09801   0.00692
  19 3   F  1S          0.01983  -0.01536  -0.00887  -0.00625  -0.00058
  20        2S         -0.00211   0.00061   0.00035  -0.00370   0.00290
  21        2PX         0.03748   0.06122  -0.02593  -0.00812   0.00231
  22        2PY         0.02164  -0.02593   0.09117  -0.00469   0.01315
  23        2PZ         0.05192  -0.04547  -0.02625   0.09003  -0.00232
  24        3S         -0.00963   0.02912   0.01681   0.00057  -0.00194
  25        3PX         0.04351   0.06978  -0.02563  -0.00529   0.00080
  26        3PY         0.02512  -0.02563   0.09938  -0.00306   0.00842
  27        3PZ         0.05657  -0.04763  -0.02750   0.09801  -0.00017
  28 4   F  1S          0.01983   0.01536  -0.00887  -0.00625  -0.00058
  29        2S         -0.00211  -0.00061   0.00035  -0.00370   0.00290
  30        2PX        -0.03748   0.06122   0.02593   0.00812  -0.00231
  31        2PY         0.02164   0.02593   0.09117  -0.00469   0.01315
  32        2PZ         0.05192   0.04547  -0.02625   0.09003  -0.00232
  33        3S         -0.00963  -0.02912   0.01681   0.00057  -0.00194
  34        3PX        -0.04351   0.06978   0.02563   0.00529  -0.00080
  35        3PY         0.02512   0.02563   0.09938  -0.00306   0.00842
  36        3PZ         0.05657   0.04763  -0.02750   0.09801  -0.00017
                          11        12        13        14        15
  11        2S          0.14124
  12        2PX         0.00000   0.57181
  13        2PY         0.02971  -0.00000   0.47010
  14        2PZ        -0.01509   0.00000   0.05395   0.51266
  15        3S          0.39765   0.00000   0.09184  -0.06573   1.35743
  16        3PX         0.00000   0.63090  -0.00000   0.00000   0.00000
  17        3PY         0.02702  -0.00000   0.51458   0.06138   0.07293
  18        3PZ        -0.01325   0.00000   0.05961   0.57630  -0.05758
  19 3   F  1S          0.00290  -0.01023  -0.00857  -0.00232  -0.00194
  20        2S         -0.00075   0.00231   0.00663  -0.00221  -0.00320
  21        2PX        -0.00459   0.01288   0.01794   0.00763   0.00237
  22        2PY        -0.00532   0.03636   0.04423  -0.00694  -0.08023
  23        2PZ        -0.00221   0.00982  -0.00314  -0.03441   0.02535
  24        3S         -0.00320   0.07067   0.03806   0.02535  -0.01141
  25        3PX        -0.00491   0.02157   0.02253   0.02509   0.00281
  26        3PY        -0.00586   0.04433   0.04512  -0.01485  -0.08543
  27        3PZ        -0.00210   0.02497  -0.00323  -0.04669   0.02708
  28 4   F  1S          0.00290   0.01023  -0.00857  -0.00232  -0.00194
  29        2S         -0.00075  -0.00231   0.00663  -0.00221  -0.00320
  30        2PX         0.00459   0.01288  -0.01794  -0.00763  -0.00237
  31        2PY        -0.00532  -0.03636   0.04423  -0.00694  -0.08023
  32        2PZ        -0.00221  -0.00982  -0.00314  -0.03441   0.02535
  33        3S         -0.00320  -0.07067   0.03806   0.02535  -0.01141
  34        3PX         0.00491   0.02157  -0.02253  -0.02509  -0.00281
  35        3PY        -0.00586  -0.04433   0.04512  -0.01485  -0.08543
  36        3PZ        -0.00210  -0.02497  -0.00323  -0.04669   0.02708
                          16        17        18        19        20
  16        3PX         0.69694
  17        3PY        -0.00000   0.56484
  18        3PZ         0.00000   0.06746   0.64898
  19 3   F  1S         -0.00689  -0.00490  -0.00017   2.05920
  20        2S          0.00262   0.00719  -0.00210   0.06381   0.14124
  21        2PX         0.01028   0.01601   0.01528   0.02334  -0.02573
  22        2PY         0.03782   0.05641  -0.02001   0.01347  -0.01485
  23        2PZ         0.02541  -0.01431  -0.04669   0.01481  -0.01509
  24        3S          0.07539   0.04028   0.02708  -0.48714   0.39765
  25        3PX         0.01938   0.02048   0.03542   0.00527  -0.02340
  26        3PY         0.04584   0.05767  -0.03049   0.00304  -0.01351
  27        3PZ         0.04411  -0.01543  -0.06170   0.00692  -0.01325
  28 4   F  1S          0.00689  -0.00490  -0.00017  -0.00058   0.00290
  29        2S         -0.00262   0.00719  -0.00210   0.00290  -0.00075
  30        2PX         0.01028  -0.01601  -0.01528  -0.01254   0.00690
  31        2PY        -0.03782   0.05641  -0.02001  -0.00458  -0.00131
  32        2PZ        -0.02541  -0.01431  -0.04669  -0.00232  -0.00221
  33        3S         -0.07539   0.04028   0.02708  -0.00194  -0.00320
  34        3PX         0.01938  -0.02048  -0.03542  -0.00769   0.00753
  35        3PY        -0.04584   0.05767  -0.03049  -0.00352  -0.00132
  36        3PZ        -0.04411  -0.01543  -0.06170  -0.00017  -0.00210
                          21        22        23        24        25
  21        2PX         0.49553
  22        2PY        -0.04404   0.54638
  23        2PZ        -0.04672  -0.02698   0.51266
  24        3S         -0.07954  -0.04592  -0.06573   1.35743
  25        3PX         0.54366  -0.05037  -0.05316  -0.06316   0.59786
  26        3PY        -0.05037   0.60182  -0.03069  -0.03646  -0.05720
  27        3PZ        -0.05162  -0.02980   0.57630  -0.05758  -0.05842
  28 4   F  1S          0.01254  -0.00458  -0.00232  -0.00194   0.00769
  29        2S         -0.00690  -0.00131  -0.00221  -0.00320  -0.00753
  30        2PX         0.05990  -0.00921   0.00220   0.06830   0.06819
  31        2PY         0.00921  -0.00280   0.01007   0.04217   0.01742
  32        2PZ        -0.00220   0.01007  -0.03441   0.02535  -0.00032
  33        3S         -0.06830   0.04217   0.02535  -0.01141  -0.07258
  34        3PX         0.06819  -0.01742   0.00032   0.07258   0.07681
  35        3PY         0.00439  -0.00150   0.02916   0.04514   0.01268
  36        3PZ        -0.00969   0.02324  -0.04669   0.02708  -0.00870
                          26        27        28        29        30
  26        3PY         0.66391
  27        3PZ        -0.03373   0.64898
  28 4   F  1S         -0.00352  -0.00017   2.05920
  29        2S         -0.00132  -0.00210   0.06381   0.14124
  30        2PX        -0.00439   0.00969  -0.02334   0.02573   0.49553
  31        2PY        -0.00150   0.02324   0.01347  -0.01485   0.04404
  32        2PZ         0.02916  -0.04669   0.01481  -0.01509   0.04672
  33        3S          0.04514   0.02708  -0.48714   0.39765   0.07954
  34        3PX        -0.01268   0.00870  -0.00527   0.02340   0.54366
  35        3PY         0.00023   0.04592   0.00304  -0.01351   0.05037
  36        3PZ         0.04592  -0.06170   0.00692  -0.01325   0.05162
                          31        32        33        34        35
  31        2PY         0.54638
  32        2PZ        -0.02698   0.51266
  33        3S         -0.04592  -0.06573   1.35743
  34        3PX         0.05037   0.05316   0.06316   0.59786
  35        3PY         0.60182  -0.03069  -0.03646   0.05720   0.66391
  36        3PZ        -0.02980   0.57630  -0.05758   0.05842  -0.03373
                          36
  36        3PZ         0.64898
    Full Mulliken population analysis:
                           1         2         3         4         5
   1 1   B  1S          2.00355
   2        2S          0.01622   0.16218
   3        2PX         0.00000   0.00000   0.18111
   4        2PY         0.00000   0.00000   0.00000   0.18111
   5        2PZ         0.00000   0.00000   0.00000   0.00000   0.06335
   6        3S         -0.01441   0.05019   0.00000   0.00000   0.00000
   7        3PX         0.00000   0.00000   0.00533  -0.00000   0.00000
   8        3PY         0.00000   0.00000   0.00000   0.00533   0.00000
   9        3PZ         0.00000   0.00000   0.00000   0.00000   0.02645
  10 2   F  1S          0.00000   0.00001   0.00000  -0.00012   0.00001
  11        2S         -0.00000  -0.00016   0.00000   0.00113   0.00014
  12        2PX         0.00000   0.00000   0.00139   0.00000   0.00000
  13        2PY        -0.00001   0.00769   0.00000   0.02132   0.00283
  14        2PZ        -0.00000   0.00132   0.00000   0.00467   0.00088
  15        3S         -0.00063  -0.00229   0.00000   0.00348  -0.00020
  16        3PX        -0.00000   0.00000   0.00903   0.00000   0.00000
  17        3PY        -0.00584   0.04533   0.00000   0.07543   0.01146
  18        3PZ        -0.00097   0.00758   0.00000   0.02031   0.00915
  19 3   F  1S          0.00000   0.00001  -0.00009  -0.00003   0.00001
  20        2S         -0.00000  -0.00016   0.00085   0.00028   0.00014
  21        2PX        -0.00001   0.00577   0.01004   0.00630   0.00212
  22        2PY        -0.00000   0.00192   0.00630   0.00007   0.00071
  23        2PZ        -0.00000   0.00132   0.00350   0.00117   0.00088
  24        3S         -0.00063  -0.00229   0.00261   0.00087  -0.00020
  25        3PX        -0.00438   0.03400   0.03261   0.02622   0.00859
  26        3PY        -0.00146   0.01133   0.02622  -0.00059   0.00286
  27        3PZ        -0.00097   0.00758   0.01523   0.00508   0.00915
  28 4   F  1S          0.00000   0.00001  -0.00009  -0.00003   0.00001
  29        2S         -0.00000  -0.00016   0.00085   0.00028   0.00014
  30        2PX        -0.00001   0.00577   0.01004   0.00630   0.00212
  31        2PY        -0.00000   0.00192   0.00630   0.00007   0.00071
  32        2PZ        -0.00000   0.00132   0.00350   0.00117   0.00088
  33        3S         -0.00063  -0.00229   0.00261   0.00087  -0.00020
  34        3PX        -0.00438   0.03400   0.03261   0.02622   0.00859
  35        3PY        -0.00146   0.01133   0.02622  -0.00059   0.00286
  36        3PZ        -0.00097   0.00758   0.01523   0.00508   0.00915
                           6         7         8         9        10
   6        3S          0.03849
   7        3PX         0.00000   0.04239
   8        3PY         0.00000   0.00000   0.04239
   9        3PZ         0.00000   0.00000   0.00000   0.05491
  10 2   F  1S          0.00057   0.00000   0.00090   0.00011   2.05920
  11        2S         -0.00032  -0.00000  -0.00018   0.00032   0.01370
  12        2PX         0.00000   0.00598   0.00000   0.00000   0.00000
  13        2PY         0.00215   0.00000  -0.00122   0.00027   0.00000
  14        2PZ         0.00091   0.00000   0.00153   0.00414   0.00000
  15        3S         -0.00349  -0.00000  -0.01707  -0.00010  -0.08943
  16        3PX         0.00000   0.03338   0.00000   0.00000   0.00000
  17        3PY         0.01294   0.00000  -0.00377   0.00078   0.00000
  18        3PZ         0.00515   0.00000   0.00702   0.02423   0.00000
  19 3   F  1S          0.00057   0.00067   0.00022   0.00011   0.00000
  20        2S         -0.00032  -0.00013  -0.00004   0.00032   0.00000
  21        2PX         0.00161  -0.00035   0.00093   0.00021   0.00000
  22        2PY         0.00054   0.00093   0.00325   0.00007   0.00000
  23        2PZ         0.00091   0.00115   0.00038   0.00414   0.00000
  24        3S         -0.00349  -0.01280  -0.00427  -0.00010  -0.00000
  25        3PX         0.00971   0.00151   0.00401   0.00059   0.00000
  26        3PY         0.00324   0.00401   0.02009   0.00020   0.00000
  27        3PZ         0.00515   0.00526   0.00175   0.02423   0.00000
  28 4   F  1S          0.00057   0.00067   0.00022   0.00011   0.00000
  29        2S         -0.00032  -0.00013  -0.00004   0.00032   0.00000
  30        2PX         0.00161  -0.00035   0.00093   0.00021   0.00000
  31        2PY         0.00054   0.00093   0.00325   0.00007   0.00000
  32        2PZ         0.00091   0.00115   0.00038   0.00414   0.00000
  33        3S         -0.00349  -0.01280  -0.00427  -0.00010  -0.00000
  34        3PX         0.00971   0.00151   0.00401   0.00059   0.00000
  35        3PY         0.00324   0.00401   0.02009   0.00020   0.00000
  36        3PZ         0.00515   0.00526   0.00175   0.02423   0.00000
                          11        12        13        14        15
  11        2S          0.14124
  12        2PX         0.00000   0.57181
  13        2PY         0.00000  -0.00000   0.47010
  14        2PZ         0.00000   0.00000   0.00000   0.51266
  15        3S          0.29116   0.00000   0.00000   0.00000   1.35743
  16        3PX         0.00000   0.30811   0.00000   0.00000   0.00000
  17        3PY         0.00000   0.00000   0.25131   0.00000   0.00000
  18        3PZ         0.00000   0.00000   0.00000   0.28145   0.00000
  19 3   F  1S          0.00000   0.00000   0.00000   0.00000  -0.00000
  20        2S         -0.00000  -0.00000  -0.00000   0.00000  -0.00000
  21        2PX        -0.00000  -0.00000  -0.00000   0.00000   0.00000
  22        2PY        -0.00000  -0.00000  -0.00000   0.00000  -0.00006
  23        2PZ         0.00000   0.00000   0.00000  -0.00000   0.00000
  24        3S         -0.00000  -0.00003  -0.00003   0.00000  -0.00012
  25        3PX        -0.00001  -0.00002  -0.00004   0.00000   0.00005
  26        3PY        -0.00001  -0.00009  -0.00014   0.00000  -0.00243
  27        3PZ         0.00000   0.00000   0.00000  -0.00001   0.00000
  28 4   F  1S          0.00000   0.00000   0.00000   0.00000  -0.00000
  29        2S         -0.00000  -0.00000  -0.00000   0.00000  -0.00000
  30        2PX        -0.00000  -0.00000  -0.00000   0.00000   0.00000
  31        2PY        -0.00000  -0.00000  -0.00000   0.00000  -0.00006
  32        2PZ         0.00000   0.00000   0.00000  -0.00000   0.00000
  33        3S         -0.00000  -0.00003  -0.00003   0.00000  -0.00012
  34        3PX        -0.00001  -0.00002  -0.00004   0.00000   0.00005
  35        3PY        -0.00001  -0.00009  -0.00014   0.00000  -0.00243
  36        3PZ         0.00000   0.00000   0.00000  -0.00001   0.00000
                          16        17        18        19        20
  16        3PX         0.69694
  17        3PY         0.00000   0.56484
  18        3PZ         0.00000   0.00000   0.64898
  19 3   F  1S          0.00000   0.00000   0.00000   2.05920
  20        2S         -0.00000  -0.00002   0.00000   0.01370   0.14124
  21        2PX        -0.00001  -0.00003   0.00000   0.00000   0.00000
  22        2PY        -0.00007  -0.00017   0.00000   0.00000   0.00000
  23        2PZ         0.00000   0.00000  -0.00001   0.00000   0.00000
  24        3S         -0.00124  -0.00114   0.00000  -0.08943   0.29116
  25        3PX        -0.00027  -0.00087   0.00000   0.00000   0.00000
  26        3PY        -0.00196  -0.00363   0.00000   0.00000   0.00000
  27        3PZ         0.00000   0.00000  -0.00067   0.00000   0.00000
  28 4   F  1S          0.00000   0.00000   0.00000   0.00000   0.00000
  29        2S         -0.00000  -0.00002   0.00000   0.00000  -0.00000
  30        2PX        -0.00001  -0.00003   0.00000   0.00000  -0.00000
  31        2PY        -0.00007  -0.00017   0.00000  -0.00000  -0.00000
  32        2PZ         0.00000   0.00000  -0.00001   0.00000   0.00000
  33        3S         -0.00124  -0.00114   0.00000  -0.00000  -0.00000
  34        3PX        -0.00027  -0.00087   0.00000   0.00000  -0.00002
  35        3PY        -0.00196  -0.00363   0.00000  -0.00000   0.00000
  36        3PZ         0.00000   0.00000  -0.00067   0.00000   0.00000
                          21        22        23        24        25
  21        2PX         0.49553
  22        2PY         0.00000   0.54638
  23        2PZ         0.00000   0.00000   0.51266
  24        3S          0.00000   0.00000   0.00000   1.35743
  25        3PX         0.26551   0.00000   0.00000   0.00000   0.59786
  26        3PY         0.00000   0.29391   0.00000   0.00000   0.00000
  27        3PZ         0.00000   0.00000   0.28145   0.00000   0.00000
  28 4   F  1S          0.00000  -0.00000   0.00000  -0.00000   0.00000
  29        2S         -0.00000   0.00000   0.00000  -0.00000  -0.00002
  30        2PX        -0.00000  -0.00000   0.00000  -0.00006  -0.00028
  31        2PY         0.00000  -0.00000   0.00000   0.00000   0.00000
  32        2PZ         0.00000   0.00000  -0.00000   0.00000   0.00000
  33        3S         -0.00006   0.00000   0.00000  -0.00012  -0.00238
  34        3PX        -0.00028   0.00000   0.00000  -0.00238  -0.00673
  35        3PY        -0.00000  -0.00000   0.00000   0.00000   0.00000
  36        3PZ         0.00000   0.00000  -0.00001   0.00000   0.00000
                          26        27        28        29        30
  26        3PY         0.66391
  27        3PZ         0.00000   0.64898
  28 4   F  1S         -0.00000   0.00000   2.05920
  29        2S          0.00000   0.00000   0.01370   0.14124
  30        2PX        -0.00000   0.00000   0.00000   0.00000   0.49553
  31        2PY        -0.00000   0.00000   0.00000   0.00000   0.00000
  32        2PZ         0.00000  -0.00001   0.00000   0.00000   0.00000
  33        3S         -0.00000   0.00000  -0.08943   0.29116   0.00000
  34        3PX        -0.00000   0.00000   0.00000   0.00000   0.26551
  35        3PY         0.00000   0.00000   0.00000   0.00000  -0.00000
  36        3PZ         0.00000  -0.00067   0.00000   0.00000   0.00000
                          31        32        33        34        35
  31        2PY         0.54638
  32        2PZ         0.00000   0.51266
  33        3S          0.00000   0.00000   1.35743
  34        3PX         0.00000   0.00000   0.00000   0.59786
  35        3PY         0.29391   0.00000   0.00000   0.00000   0.66391
  36        3PZ         0.00000   0.28145   0.00000   0.00000   0.00000
                          36
  36        3PZ         0.64898
     Gross orbital populations:
                           1
   1 1   B  1S          1.98300
   2        2S          0.40706
   3        2PX         0.39140
   4        2PY         0.39140
   5        2PZ         0.16260
   6        3S          0.12804
   7        3PX         0.08759
   8        3PY         0.08759
   9        3PZ         0.17065
  10 2   F  1S          1.98496
  11        2S          0.44700
  12        2PX         0.88702
  13        2PY         0.75402
  14        2PZ         0.80753
  15        3S          1.53373
  16        3PX         1.04038
  17        3PY         0.94073
  18        3PZ         1.00153
  19 3   F  1S          1.98496
  20        2S          0.44700
  21        2PX         0.78727
  22        2PY         0.85377
  23        2PZ         0.80753
  24        3S          1.53373
  25        3PX         0.96565
  26        3PY         1.01547
  27        3PZ         1.00153
  28 4   F  1S          1.98496
  29        2S          0.44700
  30        2PX         0.78727
  31        2PY         0.85377
  32        2PZ         0.80753
  33        3S          1.53373
  34        3PX         0.96565
  35        3PY         1.01547
  36        3PZ         1.00153
          Condensed to atoms (all electrons):
               1          2          3          4
     1  B    2.947707   0.287208   0.287208   0.287208
     2  F    0.287208   9.135777  -0.013048  -0.013048
     3  F    0.287208  -0.013048   9.135777  -0.013048
     4  F    0.287208  -0.013048  -0.013048   9.135777
 Mulliken charges:
               1
     1  B    1.190668
     2  F   -0.396889
     3  F   -0.396889
     4  F   -0.396889
 Sum of Mulliken charges =   0.00000
 Mulliken charges with hydrogens summed into heavy atoms:
               1
     1  B    1.190668
     2  F   -0.396889
     3  F   -0.396889
     4  F   -0.396889
 Electronic spatial extent (au):  <R**2>=            217.4703
 Charge=              0.0000 electrons
 Dipole moment (field-independent basis, Debye):
    X=              0.0000    Y=             -0.0000    Z=              2.9575  Tot=              2.9575
 Quadrupole moment (field-independent basis, Debye-Ang):
   XX=            -22.7347   YY=            -22.7347   ZZ=            -15.8249
   XY=              0.0000   XZ=             -0.0000   YZ=              0.0000
 Traceless Quadrupole moment (field-independent basis, Debye-Ang):
   XX=             -2.3033   YY=             -2.3033   ZZ=              4.6066
   XY=              0.0000   XZ=             -0.0000   YZ=              0.0000
 Octapole moment (field-independent basis, Debye-Ang**2):
  XXX=              0.0000  YYY=             -3.1825  ZZZ=              0.2214  XYY=              0.0000
  XXY=              3.1825  XXZ=             -0.2735  XZZ=              0.0000  YZZ=              0.0000
  YYZ=             -0.2735  XYZ=             -0.0000
 Hexadecapole moment (field-independent basis, Debye-Ang**3):
 XXXX=            -91.0458 YYYY=            -91.0458 ZZZZ=            -12.5557 XXXY=              0.0000
 XXXZ=              0.0000 YYYX=              0.0000 YYYZ=             -0.1770 ZZZX=             -0.0000
 ZZZY=              0.0000 XXYY=            -30.3486 XXZZ=            -16.3075 YYZZ=            -16.3075
 XXYZ=              0.1770 YYXZ=             -0.0000 ZZXY=              0.0000
 N-N= 1.070757036189D+02 E-N=-9.817295406413D+02  KE= 3.196200386660D+02
 Symmetry A'   KE= 2.131699185638D+02
 Symmetry A"   KE= 1.064501201022D+02
 Orbital energies and kinetic energies (alpha):
                                 1                 2
   1         (A1)--O         -26.195595         36.901700
   2         (E)--O          -26.194730         36.902692
   3         (E)--O          -26.194730         36.902692
   4         (A1)--O          -7.809581         10.793398
   5         (A1)--O          -1.640221          3.580136
   6         (E)--O           -1.588026          3.881146
   7         (E)--O           -1.588026          3.881146
   8         (A1)--O          -0.813644          2.855885
   9         (E)--O           -0.746413          2.760216
  10         (E)--O           -0.746413          2.760216
  11         (A1)--O          -0.710467          2.576214
  12         (E)--O           -0.647390          3.107111
  13         (E)--O           -0.647390          3.107111
  14         (E)--O           -0.633593          3.226461
  15         (E)--O           -0.633593          3.226461
  16         (A2)--O          -0.623388          3.347434
  17         (A1)--V           0.017241          1.592910
  18         (E)--V            0.339146          1.610737
  19         (E)--V            0.339146          1.610737
  20         (A1)--V           0.419879          2.200179
  21         (A1)--V           0.560665          1.735492
  22         (E)--V            0.680007          2.663973
  23         (E)--V            0.680007          2.663973
  24         (A1)--V           0.846041          2.851500
  25         (E)--V            2.142106          6.512435
  26         (E)--V            2.142106          6.512435
  27         (A2)--V           2.318625          6.557686
  28         (A1)--V           2.323810          6.598135
  29         (E)--V            2.337168          6.597618
  30         (E)--V            2.337168          6.597618
  31         (A1)--V           2.412611          6.528718
  32         (E)--V            2.479225          6.717532
  33         (E)--V            2.479225          6.717532
  34         (E)--V            3.795840          8.629428
  35         (E)--V            3.795840          8.629428
  36         (A1)--V           4.275209          8.820614
 Total kinetic energy from orbitals= 3.196200386660D+02
 1\1\GINC-IISERK51\SP\RHF\3-21G\B1F3\GAUSSIAN\16-Jun-2025\0\\# hf/3-21g
  pop=full geom=connectivity\\BF3 pyramid sp\\0,1\B,0,0.,0.,0.39448\F,0
 ,0.,1.32238,-0.073052\F,0,-1.145215,-0.66119,-0.073052\F,0,1.145215,-0
 .66119,-0.073052\\Version=EM64L-G16RevB.01\State=1-A1\HF=-321.3922482\
 RMSD=3.188e-09\Dipole=0.,0.,1.1635871\Quadrupole=-1.7124418,-1.7124418
 ,3.4248836,0.,0.,0.\PG=C03V [C3(B1),3SGV(F1)]\\@


 WE STILL HAVE JUDGEMENT HERE,
 THAT WE TEACH BUT BLOODY INSTRUCTIONS,
 WHICH, BEING TAUGHT,
 RETURN TO PLAGUE THE INVENTOR.
           MACBETH ACT I, SCENE VII
 Job cpu time:       0 days  0 hours  0 minutes  0.4 seconds.
 Elapsed time:       0 days  0 hours  0 minutes  0.4 seconds.
 File lengths (MBytes):  RWF=      6 Int=      0 D2E=      0 Chk=      1 Scr=      1
 Normal termination of Gaussian 16 at Mon Jun 16 19:53:16 2025.
