 Entering Gaussian System, Link 0=g16
 Input=/home/gaussian/Documents/Summer_Internship/Acid_Base_adduct/Acid/BCl3/MX4-/BCl4_ion_opt.com
 Output=/home/gaussian/Documents/Summer_Internship/Acid_Base_adduct/Acid/BCl3/MX4-/BCl4_ion_opt.log
 Initial command:
 /usr/local/g16/l1.exe "/home/gaussian/tmp/Gau-78643.inp" -scrdir="/home/gaussian/tmp/"
 Entering Link 1 = /usr/local/g16/l1.exe PID=     78646.
  
 Copyright (c) 1988-2017, Gaussian, Inc.  All Rights Reserved.
  
 This is part of the Gaussian(R) 16 program.  It is based on
 the Gaussian(R) 09 system (copyright 2009, Gaussian, Inc.),
 the Gaussian(R) 03 system (copyright 2003, Gaussian, Inc.),
 the Gaussian(R) 98 system (copyright 1998, Gaussian, Inc.),
 the Gaussian(R) 94 system (copyright 1995, Gaussian, Inc.),
 the Gaussian 92(TM) system (copyright 1992, Gaussian, Inc.),
 the Gaussian 90(TM) system (copyright 1990, Gaussian, Inc.),
 the Gaussian 88(TM) system (copyright 1988, Gaussian, Inc.),
 the Gaussian 86(TM) system (copyright 1986, Carnegie Mellon
 University), and the Gaussian 82(TM) system (copyright 1983,
 Carnegie Mellon University). Gaussian is a federally registered
 trademark of Gaussian, Inc.
  
 This software contains proprietary and confidential information,
 including trade secrets, belonging to Gaussian, Inc.
  
 This software is provided under written license and may be
 used, copied, transmitted, or stored only in accord with that
 written license.
  
 The following legend is applicable only to US Government
 contracts under FAR:
  
                    RESTRICTED RIGHTS LEGEND
  
 Use, reproduction and disclosure by the US Government is
 subject to restrictions as set forth in subparagraphs (a)
 and (c) of the Commercial Computer Software - Restricted
 Rights clause in FAR 52.227-19.
  
 Gaussian, Inc.
 340 Quinnipiac St., Bldg. 40, Wallingford CT 06492
  
  
 ---------------------------------------------------------------
 Warning -- This program may not be used in any manner that
 competes with the business of Gaussian, Inc. or will provide
 assistance to any competitor of Gaussian, Inc.  The licensee
 of this program is prohibited from giving any competitor of
 Gaussian, Inc. access to this program.  By using this program,
 the user acknowledges that Gaussian, Inc. is engaged in the
 business of creating and licensing software in the field of
 computational chemistry and represents and warrants to the
 licensee that it is not a competitor of Gaussian, Inc. and that
 it will not use this program in any manner prohibited above.
 ---------------------------------------------------------------
  

 Cite this work as:
 Gaussian 16, Revision B.01,
 M. J. Frisch, G. W. Trucks, H. B. Schlegel, G. E. Scuseria, 
 M. A. Robb, J. R. Cheeseman, G. Scalmani, V. Barone, 
 G. A. Petersson, H. Nakatsuji, X. Li, M. Caricato, A. V. Marenich, 
 J. Bloino, B. G. Janesko, R. Gomperts, B. Mennucci, H. P. Hratchian, 
 J. V. Ortiz, A. F. Izmaylov, J. L. Sonnenberg, D. Williams-Young, 
 F. Ding, F. Lipparini, F. Egidi, J. Goings, B. Peng, A. Petrone, 
 T. Henderson, D. Ranasinghe, V. G. Zakrzewski, J. Gao, N. Rega, 
 G. Zheng, W. Liang, M. Hada, M. Ehara, K. Toyota, R. Fukuda, 
 J. Hasegawa, M. Ishida, T. Nakajima, Y. Honda, O. Kitao, H. Nakai, 
 T. Vreven, K. Throssell, J. A. Montgomery, Jr., J. E. Peralta, 
 F. Ogliaro, M. J. Bearpark, J. J. Heyd, E. N. Brothers, K. N. Kudin, 
 V. N. Staroverov, T. A. Keith, R. Kobayashi, J. Normand, 
 K. Raghavachari, A. P. Rendell, J. C. Burant, S. S. Iyengar, 
 J. Tomasi, M. Cossi, J. M. Millam, M. Klene, C. Adamo, R. Cammi, 
 J. W. Ochterski, R. L. Martin, K. Morokuma, O. Farkas, 
 J. B. Foresman, and D. J. Fox, Gaussian, Inc., Wallingford CT, 2016.
 
 ******************************************
 Gaussian 16:  EM64L-G16RevB.01 20-Dec-2017
                16-Jun-2025 
 ******************************************
 %chk=BCl4_ion_opt.chk
 ----------------------------------------------
 # opt freq hf/3-21g pop=full geom=connectivity
 ----------------------------------------------
 1/18=20,19=15,38=1,57=2/1,3;
 2/9=110,12=2,17=6,18=5,40=1/2;
 3/5=5,11=9,25=1,30=1,71=1/1,2,3;
 4//1;
 5/5=2,38=5/2;
 6/7=3,28=1/1;
 7//1,2,3,16;
 1/18=20,19=15/3(2);
 2/9=110/2;
 99//99;
 2/9=110/2;
 3/5=5,11=9,25=1,30=1,71=1/1,2,3;
 4/5=5,16=3,69=1/1;
 5/5=2,38=5/2;
 7//1,2,3,16;
 1/18=20,19=15/3(-5);
 2/9=110/2;
 6/7=3,19=2,28=1/1;
 99/9=1/99;
 ---------
 BCl4- opt
 ---------
 Symbolic Z-matrix:
 Charge = -1 Multiplicity = 1
 B                     0.19126   0.5847    0. 
 Cl                    0.8146    1.46622   1.52685 
 Cl                    0.81457  -1.17836   0. 
 Cl                    0.8146    1.46622  -1.52685 
 Cl                   -1.67874   0.58472   0. 
 

 GradGradGradGradGradGradGradGradGradGradGradGradGradGradGradGradGradGrad
 Berny optimization.
 Initialization pass.
                           ----------------------------
                           !    Initial Parameters    !
                           ! (Angstroms and Degrees)  !
 --------------------------                            --------------------------
 ! Name  Definition              Value          Derivative Info.                !
 --------------------------------------------------------------------------------
 ! R1    R(1,2)                  1.87           estimate D2E/DX2                !
 ! R2    R(1,3)                  1.87           estimate D2E/DX2                !
 ! R3    R(1,4)                  1.87           estimate D2E/DX2                !
 ! R4    R(1,5)                  1.87           estimate D2E/DX2                !
 ! A1    A(2,1,3)              109.4712         estimate D2E/DX2                !
 ! A2    A(2,1,4)              109.4713         estimate D2E/DX2                !
 ! A3    A(2,1,5)              109.4712         estimate D2E/DX2                !
 ! A4    A(3,1,4)              109.4712         estimate D2E/DX2                !
 ! A5    A(3,1,5)              109.4712         estimate D2E/DX2                !
 ! A6    A(4,1,5)              109.4712         estimate D2E/DX2                !
 ! D1    D(2,1,4,3)            120.0            estimate D2E/DX2                !
 ! D2    D(2,1,5,3)           -120.0            estimate D2E/DX2                !
 ! D3    D(2,1,5,4)            120.0            estimate D2E/DX2                !
 ! D4    D(3,1,5,4)           -120.0            estimate D2E/DX2                !
 --------------------------------------------------------------------------------
 Trust Radius=3.00D-01 FncErr=1.00D-07 GrdErr=1.00D-07 EigMax=2.50D+02 EigMin=1.00D-04
 Number of steps in this run=     24 maximum allowed number of steps=    100.
 GradGradGradGradGradGradGradGradGradGradGradGradGradGradGradGradGradGrad

                          Input orientation:                          
 ---------------------------------------------------------------------
 Center     Atomic      Atomic             Coordinates (Angstroms)
 Number     Number       Type             X           Y           Z
 ---------------------------------------------------------------------
      1          5           0        0.191257    0.584699    0.000000
      2         17           0        0.814601    1.466218    1.526849
      3         17           0        0.814569   -1.178361    0.000000
      4         17           0        0.814601    1.466218   -1.526849
      5         17           0       -1.678743    0.584722    0.000000
 ---------------------------------------------------------------------
                    Distance matrix (angstroms):
                    1          2          3          4          5
     1  B    0.000000
     2  Cl   1.870000   0.000000
     3  Cl   1.870000   3.053697   0.000000
     4  Cl   1.870000   3.053698   3.053697   0.000000
     5  Cl   1.870000   3.053697   3.053697   3.053697   0.000000
 Fill:  no match for NOp=  2 IAt=    2 RMin= 2.70D+00
 Fill:  no match for NOp=  2 IAt=    3 RMin= 3.07D+00
 Fill:  no match for NOp=  2 IAt=    4 RMin= 2.90D+00
 Fill:  no match for NOp=  2 IAt=    5 RMin= 2.91D+00
 Error permuting atoms in Fill, NOp=  2 RMinMx= 3.07D+00 LPerm:
   1   0   0   0   0
 Symmetry turned off:
 Internal error in symmetry package.
 Rotational constants (GHZ):           1.5498296           1.5498294           1.5498289
 Standard basis: 3-21G (6D, 7F)
    61 basis functions,   123 primitive gaussians,    61 cartesian basis functions
    37 alpha electrons       37 beta electrons
       nuclear repulsion energy       396.7000462239 Hartrees.
 NAtoms=    5 NActive=    5 NUniq=    5 SFac= 1.00D+00 NAtFMM=   60 NAOKFM=F Big=F
 Integral buffers will be    131072 words long.
 Raffenetti 1 integral format.
 Two-electron integral symmetry is turned off.
 One-electron integrals computed using PRISM.
 NBasis=    61 RedAO= T EigKep=  8.95D-03  NBF=    61
 NBsUse=    61 1.00D-06 EigRej= -1.00D+00 NBFU=    61
 ExpMin= 1.24D-01 ExpMax= 1.38D+03 ExpMxC= 1.38D+03 IAcc=3 IRadAn=         5 AccDes= 0.00D+00
 Harris functional with IExCor=  205 and IRadAn=       5 diagonalized for initial guess.
 HarFok:  IExCor=  205 AccDes= 0.00D+00 IRadAn=         5 IDoV= 1 UseB2=F ITyADJ=14
 ICtDFT=  3500011 ScaDFX=  1.000000  1.000000  1.000000  1.000000
 FoFCou: FMM=F IPFlag=           0 FMFlag=      100000 FMFlg1=           0
         NFxFlg=           0 DoJE=T BraDBF=F KetDBF=T FulRan=T
         wScrn=  0.000000 ICntrl=       500 IOpCl=  0 I1Cent=   200000004 NGrid=           0
         NMat0=    1 NMatS0=      1 NMatT0=    0 NMatD0=    1 NMtDS0=    0 NMtDT0=    0
 Symmetry not used in FoFCou.
 Keep R1 ints in memory in canonical form, NReq=2602383.
 Requested convergence on RMS density matrix=1.00D-08 within 128 cycles.
 Requested convergence on MAX density matrix=1.00D-06.
 Requested convergence on             energy=1.00D-06.
 No special actions if energy rises.
 SCF Done:  E(RHF) =  -1853.97018113     A.U. after    9 cycles
            NFock=  9  Conv=0.59D-08     -V/T= 2.0006

 **********************************************************************

            Population analysis using the SCF Density.

 **********************************************************************

 Alpha  occ. eigenvalues -- -103.92387-103.92387-103.92387-103.92347 -10.31970
 Alpha  occ. eigenvalues --  -10.31970 -10.31970 -10.31844  -7.78296  -7.78296
 Alpha  occ. eigenvalues --   -7.78296  -7.78279  -7.77942  -7.77942  -7.77942
 Alpha  occ. eigenvalues --   -7.77920  -7.77920  -7.77920  -7.77915  -7.77915
 Alpha  occ. eigenvalues --   -7.56805  -0.99153  -0.91278  -0.91278  -0.91278
 Alpha  occ. eigenvalues --   -0.51822  -0.40578  -0.40578  -0.40578  -0.32043
 Alpha  occ. eigenvalues --   -0.32043  -0.28265  -0.28265  -0.28265  -0.26556
 Alpha  occ. eigenvalues --   -0.26556  -0.26556
 Alpha virt. eigenvalues --    0.38180   0.40370   0.40370   0.40370   0.80055
 Alpha virt. eigenvalues --    0.81953   0.81953   0.81953   0.93237   0.93237
 Alpha virt. eigenvalues --    0.93237   0.93567   0.94824   0.94824   0.97688
 Alpha virt. eigenvalues --    0.97688   0.97688   1.08151   1.08151   1.08151
 Alpha virt. eigenvalues --    1.22952   1.22952   1.22952   1.70970
     Molecular Orbital Coefficients:
                           1         2         3         4         5
                           O         O         O         O         O
     Eigenvalues --  -103.92387-103.92387-103.92387-103.92347 -10.31970
   1 1   B  1S          0.00000  -0.00000  -0.00000   0.00022  -0.00000
   2        2S          0.00000  -0.00000  -0.00000   0.00227  -0.00000
   3        2PX         0.00000  -0.00012   0.00005   0.00000  -0.00000
   4        2PY         0.00000  -0.00005  -0.00012  -0.00000  -0.00000
   5        2PZ        -0.00013  -0.00000  -0.00000   0.00000   0.00087
   6        3S         -0.00000   0.00000   0.00000  -0.01157   0.00000
   7        3PX        -0.00000   0.00447  -0.00182  -0.00000   0.00000
   8        3PY        -0.00000   0.00182   0.00447   0.00000   0.00000
   9        3PZ         0.00483   0.00000   0.00000  -0.00000  -0.02824
  10 2   Cl 1S         -0.69710  -0.41533  -0.26557   0.49294   0.21629
  11        2S         -0.03759  -0.02240  -0.01432   0.02647  -0.69484
  12        2PX         0.00005   0.00006   0.00001  -0.00001   0.00171
  13        2PY         0.00007   0.00006   0.00006  -0.00002   0.00242
  14        2PZ         0.00016   0.00008   0.00005  -0.00003   0.00408
  15        3S          0.01402   0.00835   0.00534  -0.00925  -0.10364
  16        3PX        -0.00022  -0.00027  -0.00003   0.00002   0.00161
  17        3PY        -0.00031  -0.00024  -0.00026   0.00003   0.00227
  18        3PZ        -0.00069  -0.00032  -0.00021   0.00005   0.00467
  19        4S         -0.01021  -0.00608  -0.00389   0.00708   0.05975
  20        4PX         0.00107   0.00035   0.00052  -0.00065  -0.00628
  21        4PY         0.00151   0.00079   0.00029  -0.00092  -0.00888
  22        4PZ         0.00231   0.00156   0.00100  -0.00160  -0.01339
  23 3   Cl 1S         -0.00000   0.03975   0.85285   0.49298   0.00000
  24        2S         -0.00000   0.00214   0.04599   0.02647  -0.00000
  25        2PX        -0.00000   0.00003  -0.00008  -0.00001   0.00000
  26        2PY        -0.00000   0.00002   0.00021   0.00003  -0.00000
  27        2PZ         0.00003   0.00000   0.00000  -0.00000  -0.00011
  28        3S          0.00000  -0.00080  -0.01715  -0.00925  -0.00000
  29        3PX         0.00000  -0.00013   0.00033   0.00002  -0.00000
  30        3PY         0.00000  -0.00009  -0.00091  -0.00006  -0.00000
  31        3PZ        -0.00015  -0.00000  -0.00000   0.00000   0.00074
  32        4S         -0.00000   0.00058   0.01249   0.00708   0.00000
  33        4PX         0.00000  -0.00035  -0.00119  -0.00065  -0.00000
  34        4PY        -0.00000   0.00006   0.00342   0.00184   0.00000
  35        4PZ        -0.00031  -0.00000  -0.00000   0.00000   0.00200
  36 4   Cl 1S          0.69714  -0.41527  -0.26556   0.49294  -0.21630
  37        2S          0.03759  -0.02239  -0.01432   0.02647   0.69487
  38        2PX        -0.00005   0.00006   0.00001  -0.00001  -0.00171
  39        2PY        -0.00007   0.00006   0.00006  -0.00002  -0.00242
  40        2PZ         0.00016  -0.00008  -0.00005   0.00003   0.00408
  41        3S         -0.01402   0.00835   0.00534  -0.00925   0.10364
  42        3PX         0.00022  -0.00027  -0.00003   0.00002  -0.00161
  43        3PY         0.00031  -0.00024  -0.00026   0.00003  -0.00227
  44        3PZ        -0.00069   0.00032   0.00021  -0.00005   0.00467
  45        4S          0.01021  -0.00608  -0.00389   0.00708  -0.05975
  46        4PX        -0.00107   0.00035   0.00052  -0.00065   0.00628
  47        4PY        -0.00151   0.00079   0.00029  -0.00092   0.00889
  48        4PZ         0.00231  -0.00156  -0.00100   0.00160  -0.01339
  49 5   Cl 1S         -0.00003   0.79084  -0.32179   0.49295   0.00001
  50        2S         -0.00000   0.04264  -0.01735   0.02647  -0.00003
  51        2PX        -0.00000   0.00021  -0.00008   0.00004  -0.00000
  52        2PY        -0.00000   0.00001   0.00003   0.00000   0.00000
  53        2PZ         0.00003   0.00000   0.00000  -0.00000  -0.00011
  54        3S          0.00000  -0.01590   0.00647  -0.00925  -0.00000
  55        3PX         0.00000  -0.00089   0.00036  -0.00007  -0.00000
  56        3PY         0.00000  -0.00006  -0.00014  -0.00000  -0.00000
  57        3PZ        -0.00015  -0.00000  -0.00000   0.00000   0.00074
  58        4S         -0.00000   0.01158  -0.00471   0.00708   0.00000
  59        4PX        -0.00000   0.00336  -0.00137   0.00196   0.00000
  60        4PY         0.00000  -0.00012  -0.00028  -0.00000  -0.00000
  61        4PZ        -0.00031  -0.00000  -0.00000   0.00000   0.00200
                           6         7         8         9        10
                           O         O         O         O         O
     Eigenvalues --   -10.31970 -10.31970 -10.31844  -7.78296  -7.78296
   1 1   B  1S          0.00000   0.00000  -0.00179  -0.00000   0.00000
   2        2S          0.00000   0.00000  -0.01356   0.00000  -0.00000
   3        2PX         0.00080  -0.00034  -0.00000  -0.00000   0.00123
   4        2PY         0.00034   0.00080   0.00000  -0.00000   0.00048
   5        2PZ         0.00000   0.00000  -0.00000   0.00132   0.00000
   6        3S         -0.00000  -0.00000   0.06990   0.00000  -0.00000
   7        3PX        -0.02601   0.01101   0.00000   0.00000  -0.00934
   8        3PY        -0.01101  -0.02601  -0.00000   0.00000  -0.00368
   9        3PZ        -0.00000  -0.00000   0.00000  -0.01004  -0.00000
  10 2   Cl 1S          0.13002   0.08056  -0.15303  -0.00203  -0.00120
  11        2S         -0.41769  -0.25879   0.49195   0.00709   0.00420
  12        2PX         0.00092   0.00068  -0.00131   0.22729   0.14151
  13        2PY         0.00141   0.00080  -0.00185   0.32143   0.19291
  14        2PZ         0.00252   0.00156  -0.00321   0.56433   0.32932
  15        3S         -0.06230  -0.03860   0.07003  -0.00603  -0.00356
  16        3PX         0.00165   0.00031  -0.00041   0.01941   0.01251
  17        3PY         0.00165   0.00153  -0.00058   0.02745   0.01664
  18        3PZ         0.00237   0.00147  -0.00101   0.04865   0.02812
  19        4S          0.03592   0.02225  -0.04259   0.01225   0.00724
  20        4PX        -0.00193  -0.00312   0.00405  -0.00804  -0.00549
  21        4PY        -0.00456  -0.00146   0.00572  -0.01137  -0.00702
  22        4PZ        -0.00925  -0.00573   0.00991  -0.02049  -0.01165
  23 3   Cl 1S         -0.01609  -0.26441  -0.15303  -0.00000   0.00009
  24        2S          0.05169   0.84945   0.49196   0.00000  -0.00031
  25        2PX        -0.00023  -0.00205  -0.00131   0.00000  -0.00281
  26        2PY         0.00032   0.00581   0.00370  -0.00000   0.03071
  27        2PZ        -0.00000  -0.00000   0.00000   0.00759   0.00000
  28        3S          0.00771   0.12669   0.07003  -0.00000   0.00026
  29        3PX         0.00056  -0.00225  -0.00041   0.00000   0.00019
  30        3PY         0.00063   0.00623   0.00116  -0.00000   0.00279
  31        3PZ         0.00000   0.00000  -0.00000   0.00111   0.00000
  32        4S         -0.00444  -0.07305  -0.04259   0.00000  -0.00053
  33        4PX         0.00231   0.00690   0.00405  -0.00000  -0.00038
  34        4PY        -0.00054  -0.01988  -0.01145   0.00000  -0.00128
  35        4PZ         0.00000   0.00000  -0.00000  -0.00079  -0.00000
  36 4   Cl 1S          0.13000   0.08056  -0.15303   0.00203  -0.00120
  37        2S         -0.41764  -0.25879   0.49195  -0.00710   0.00420
  38        2PX         0.00092   0.00068  -0.00131  -0.22730   0.14150
  39        2PY         0.00141   0.00080  -0.00185  -0.32144   0.19290
  40        2PZ        -0.00252  -0.00156   0.00321   0.56434  -0.32929
  41        3S         -0.06229  -0.03860   0.07003   0.00603  -0.00356
  42        3PX         0.00165   0.00031  -0.00041  -0.01941   0.01251
  43        3PY         0.00165   0.00153  -0.00058  -0.02745   0.01664
  44        3PZ        -0.00237  -0.00147   0.00101   0.04865  -0.02812
  45        4S          0.03591   0.02225  -0.04259  -0.01225   0.00724
  46        4PX        -0.00193  -0.00312   0.00405   0.00804  -0.00549
  47        4PY        -0.00456  -0.00146   0.00572   0.01137  -0.00702
  48        4PZ         0.00925   0.00573  -0.00991  -0.02049   0.01165
  49 5   Cl 1S         -0.24393   0.10331  -0.15303  -0.00000   0.00231
  50        2S          0.78364  -0.33189   0.49195   0.00000  -0.00808
  51        2PX         0.00568  -0.00241   0.00393  -0.00002   0.78404
  52        2PY        -0.00004  -0.00010  -0.00000  -0.00000   0.00277
  53        2PZ        -0.00000  -0.00000   0.00000   0.00759   0.00000
  54        3S          0.11688  -0.04950   0.07003  -0.00000   0.00687
  55        3PX         0.00611  -0.00259   0.00123  -0.00000   0.06738
  56        3PY         0.00029   0.00068  -0.00000  -0.00000   0.00041
  57        3PZ         0.00000   0.00000  -0.00000   0.00111   0.00000
  58        4S         -0.06739   0.02854  -0.04259   0.00000  -0.01396
  59        4PX        -0.01941   0.00822  -0.01214   0.00000  -0.02823
  60        4PY         0.00078   0.00184   0.00000   0.00000  -0.00029
  61        4PZ         0.00000   0.00000  -0.00000  -0.00079  -0.00000
                          11        12        13        14        15
                           O         O         O         O         O
     Eigenvalues --    -7.78296  -7.78279  -7.77942  -7.77942  -7.77942
   1 1   B  1S          0.00000  -0.00105  -0.00000   0.00000   0.00000
   2        2S         -0.00000   0.00163   0.00000  -0.00000   0.00000
   3        2PX        -0.00048  -0.00000   0.00000  -0.00000  -0.00000
   4        2PY         0.00123   0.00000   0.00000   0.00000  -0.00000
   5        2PZ         0.00000  -0.00000   0.00000   0.00000  -0.00000
   6        3S         -0.00000   0.00830   0.00000  -0.00000  -0.00000
   7        3PX         0.00368   0.00000  -0.00000   0.00000   0.00000
   8        3PY        -0.00934  -0.00000  -0.00000   0.00000   0.00000
   9        3PZ        -0.00000   0.00000  -0.00000  -0.00000   0.00000
  10 2   Cl 1S         -0.00079   0.00133   0.00000   0.00000  -0.00000
  11        2S          0.00275  -0.00454  -0.00000  -0.00000   0.00000
  12        2PX         0.08531  -0.16225   0.45142  -0.18269   0.28118
  13        2PY         0.13164  -0.22945   0.18270   0.45143  -0.19884
  14        2PZ         0.21578  -0.39743  -0.28977  -0.18605   0.00000
  15        3S         -0.00234  -0.00002   0.00000   0.00000  -0.00000
  16        3PX         0.00712  -0.01350   0.03747  -0.01516   0.02334
  17        3PY         0.01167  -0.01909   0.01516   0.03747  -0.01650
  18        3PZ         0.01842  -0.03307  -0.02405  -0.01544   0.00000
  19        4S          0.00475  -0.00042   0.00000   0.00000  -0.00000
  20        4PX        -0.00283   0.00411  -0.01301   0.00526  -0.00810
  21        4PY        -0.00514   0.00581  -0.00527  -0.01301   0.00573
  22        4PZ        -0.00764   0.01006   0.00835   0.00536  -0.00000
  23 3   Cl 1S          0.00248   0.00133  -0.00000  -0.00000  -0.00000
  24        2S         -0.00868  -0.00454   0.00000   0.00000   0.00000
  25        2PX        -0.28096  -0.16227   0.00000  -0.00002  -0.56228
  26        2PY         0.79389   0.45900   0.00000  -0.00001  -0.19879
  27        2PZ         0.00000  -0.00000   0.02667   0.59579  -0.00002
  28        3S          0.00738  -0.00002  -0.00000  -0.00000  -0.00000
  29        3PX        -0.02416  -0.01350   0.00000  -0.00000  -0.04667
  30        3PY         0.06822   0.03819   0.00000  -0.00000  -0.01650
  31        3PZ         0.00000  -0.00000   0.00221   0.04945  -0.00000
  32        4S         -0.01499  -0.00042  -0.00000  -0.00000  -0.00000
  33        4PX         0.01013   0.00411  -0.00000   0.00000   0.01620
  34        4PY        -0.02858  -0.01162  -0.00000   0.00000   0.00573
  35        4PZ        -0.00000   0.00000  -0.00077  -0.01717   0.00000
  36 4   Cl 1S         -0.00079   0.00133  -0.00000  -0.00000  -0.00000
  37        2S          0.00275  -0.00454   0.00000   0.00000   0.00000
  38        2PX         0.08531  -0.16225  -0.45142   0.18271   0.28117
  39        2PY         0.13164  -0.22945  -0.18270  -0.45144  -0.19881
  40        2PZ        -0.21577   0.39743  -0.28977  -0.18605   0.00001
  41        3S         -0.00234  -0.00002  -0.00000  -0.00000  -0.00000
  42        3PX         0.00712  -0.01350  -0.03747   0.01516   0.02334
  43        3PY         0.01167  -0.01909  -0.01516  -0.03747  -0.01650
  44        3PZ        -0.01842   0.03307  -0.02405  -0.01544   0.00000
  45        4S          0.00475  -0.00042  -0.00000  -0.00000  -0.00000
  46        4PX        -0.00283   0.00411   0.01301  -0.00527  -0.00810
  47        4PY        -0.00514   0.00581   0.00527   0.01301   0.00573
  48        4PZ         0.00764  -0.01006   0.00835   0.00536  -0.00000
  49 5   Cl 1S         -0.00091   0.00133  -0.00000   0.00000   0.00000
  50        2S          0.00319  -0.00454   0.00000  -0.00000  -0.00000
  51        2PX        -0.30895   0.48676  -0.00000   0.00000   0.00001
  52        2PY         0.00707  -0.00001  -0.00000   0.00002   0.59645
  53        2PZ         0.00000  -0.00000   0.55286  -0.22377   0.00001
  54        3S         -0.00271  -0.00002  -0.00000   0.00000   0.00000
  55        3PX        -0.02655   0.04050  -0.00000   0.00000   0.00000
  56        3PY         0.00103  -0.00000  -0.00000   0.00000   0.04950
  57        3PZ         0.00000  -0.00000   0.04589  -0.01857   0.00000
  58        4S          0.00550  -0.00042  -0.00000   0.00000   0.00000
  59        4PX         0.01112  -0.01232  -0.00000  -0.00000  -0.00000
  60        4PY        -0.00073   0.00000   0.00000  -0.00000  -0.01719
  61        4PZ        -0.00000   0.00000  -0.01593   0.00645  -0.00000
                          16        17        18        19        20
                           O         O         O         O         O
     Eigenvalues --    -7.77920  -7.77920  -7.77920  -7.77915  -7.77915
   1 1   B  1S         -0.00000  -0.00000   0.00000   0.00000   0.00000
   2        2S         -0.00000  -0.00000   0.00000   0.00000   0.00000
   3        2PX         0.00069  -0.00174   0.00000  -0.00000  -0.00000
   4        2PY        -0.00174  -0.00069   0.00000  -0.00000  -0.00000
   5        2PZ        -0.00000  -0.00000  -0.00187   0.00000  -0.00000
   6        3S          0.00000   0.00000  -0.00000  -0.00000  -0.00000
   7        3PX        -0.00444   0.01110  -0.00000   0.00000   0.00000
   8        3PY         0.01110   0.00444  -0.00000   0.00000   0.00000
   9        3PZ         0.00000   0.00000   0.01196  -0.00000   0.00000
  10 2   Cl 1S         -0.00001  -0.00001  -0.00002  -0.00000  -0.00000
  11        2S          0.00005   0.00008   0.00013   0.00000   0.00000
  12        2PX        -0.28492   0.45594  -0.16542  -0.22966   0.39773
  13        2PY         0.46406   0.08265  -0.23377  -0.32473  -0.28136
  14        2PZ        -0.15581  -0.24034   0.19156   0.28124   0.00006
  15        3S         -0.00040  -0.00062  -0.00104  -0.00000  -0.00000
  16        3PX        -0.02307   0.03714  -0.01325  -0.01846   0.03197
  17        3PY         0.03779   0.00687  -0.01872  -0.02610  -0.02262
  18        3PZ        -0.01248  -0.01925   0.01602   0.02261   0.00001
  19        4S         -0.00097  -0.00150  -0.00252  -0.00000  -0.00000
  20        4PX         0.00782  -0.01223   0.00473   0.00505  -0.00875
  21        4PY        -0.01246  -0.00204   0.00668   0.00714   0.00619
  22        4PZ         0.00445   0.00687  -0.00461  -0.00619  -0.00000
  23 3   Cl 1S          0.00002   0.00000  -0.00000   0.00000   0.00000
  24        2S         -0.00016  -0.00001   0.00000  -0.00000  -0.00000
  25        2PX        -0.01899   0.56210  -0.00001   0.45947   0.00007
  26        2PY        -0.01830   0.19826  -0.00000   0.16244   0.00002
  27        2PZ         0.00000   0.00001   0.59654  -0.00007   0.48732
  28        3S          0.00127   0.00005  -0.00000   0.00000   0.00000
  29        3PX        -0.00177   0.04564  -0.00000   0.03693   0.00001
  30        3PY        -0.00083   0.01613  -0.00000   0.01306   0.00000
  31        3PZ         0.00000   0.00000   0.04845  -0.00001   0.03917
  32        4S          0.00309   0.00012  -0.00000   0.00000   0.00000
  33        4PX         0.00022  -0.01526   0.00000  -0.01011  -0.00000
  34        4PY         0.00132  -0.00535   0.00000  -0.00357  -0.00000
  35        4PZ        -0.00000  -0.00000  -0.01618   0.00000  -0.01072
  36 4   Cl 1S         -0.00001  -0.00001   0.00002  -0.00000   0.00000
  37        2S          0.00005   0.00008  -0.00013   0.00000  -0.00000
  38        2PX        -0.28492   0.45594   0.16541  -0.22955  -0.39780
  39        2PY         0.46406   0.08266   0.23376  -0.32482   0.28127
  40        2PZ         0.15581   0.24035   0.19155  -0.28124  -0.00002
  41        3S         -0.00040  -0.00062   0.00104  -0.00000   0.00000
  42        3PX        -0.02307   0.03714   0.01324  -0.01845  -0.03197
  43        3PY         0.03779   0.00687   0.01872  -0.02611   0.02261
  44        3PZ         0.01248   0.01925   0.01602  -0.02261  -0.00000
  45        4S         -0.00097  -0.00150   0.00252  -0.00000   0.00000
  46        4PX         0.00782  -0.01223  -0.00473   0.00505   0.00875
  47        4PY        -0.01246  -0.00204  -0.00668   0.00714  -0.00619
  48        4PZ        -0.00445  -0.00687  -0.00461   0.00619   0.00000
  49 5   Cl 1S         -0.00001   0.00002  -0.00000   0.00000   0.00000
  50        2S          0.00006  -0.00015   0.00000  -0.00000  -0.00000
  51        2PX         0.00406  -0.01015   0.00000   0.00000   0.00000
  52        2PY         0.55401   0.22120  -0.00001   0.48724   0.00007
  53        2PZ         0.00000   0.00001   0.59665   0.00007  -0.48712
  54        3S         -0.00047   0.00118  -0.00000   0.00000   0.00000
  55        3PX         0.00007  -0.00018   0.00000   0.00000   0.00000
  56        3PY         0.04500   0.01797  -0.00000   0.03916   0.00001
  57        3PZ         0.00000   0.00000   0.04846   0.00001  -0.03915
  58        4S         -0.00115   0.00287  -0.00000   0.00000   0.00000
  59        4PX        -0.00043   0.00109  -0.00000   0.00000   0.00000
  60        4PY        -0.01503  -0.00600   0.00000  -0.01072  -0.00000
  61        4PZ        -0.00000  -0.00000  -0.01619  -0.00000   0.01071
                          21        22        23        24        25
                           O         O         O         O         O
     Eigenvalues --    -7.56805  -0.99153  -0.91278  -0.91278  -0.91278
   1 1   B  1S          0.99056  -0.10165  -0.00000   0.00000  -0.00000
   2        2S          0.10387   0.11216   0.00000   0.00000  -0.00000
   3        2PX         0.00000   0.00000  -0.00000  -0.10553  -0.02337
   4        2PY        -0.00000  -0.00000  -0.00000   0.02337  -0.10553
   5        2PZ        -0.00000  -0.00000   0.10809  -0.00000  -0.00000
   6        3S         -0.11011   0.21243   0.00000  -0.00000   0.00000
   7        3PX        -0.00000   0.00000   0.00000   0.01047   0.00232
   8        3PY         0.00000  -0.00000   0.00000  -0.00232   0.01047
   9        3PZ         0.00000   0.00000  -0.01073   0.00000   0.00000
  10 2   Cl 1S         -0.00015   0.03528   0.05587  -0.01530  -0.03643
  11        2S          0.00065  -0.20639  -0.32858   0.08996   0.21422
  12        2PX        -0.00047   0.00933   0.00849   0.00374  -0.00419
  13        2PY        -0.00066   0.01320   0.01200  -0.00463  -0.00176
  14        2PZ        -0.00114   0.02285   0.01458  -0.00569  -0.01355
  15        3S         -0.00687   0.26953   0.40428  -0.11068  -0.26357
  16        3PX         0.00014  -0.01939  -0.01735  -0.00836   0.00841
  17        3PY         0.00020  -0.02742  -0.02453   0.00962   0.00289
  18        3PZ         0.00035  -0.04750  -0.02907   0.01163   0.02770
  19        4S          0.02778   0.16529   0.37933  -0.10385  -0.24730
  20        4PX        -0.00460  -0.00034  -0.01400  -0.00090   0.00808
  21        4PY        -0.00651  -0.00048  -0.01980   0.00647   0.00817
  22        4PZ        -0.01127  -0.00083  -0.02944   0.00939   0.02236
  23 3   Cl 1S         -0.00015   0.03528   0.00000  -0.03622   0.05806
  24        2S          0.00065  -0.20639  -0.00000   0.21299  -0.34144
  25        2PX        -0.00047   0.00933   0.00000   0.00056   0.01016
  26        2PY         0.00132  -0.02639  -0.00000   0.01422  -0.01888
  27        2PZ        -0.00000   0.00000  -0.00621   0.00000   0.00000
  28        3S         -0.00687   0.26953   0.00000  -0.26206   0.42010
  29        3PX         0.00014  -0.01939  -0.00000  -0.00186  -0.02093
  30        3PY        -0.00040   0.05484   0.00000  -0.02890   0.03788
  31        3PZ         0.00000  -0.00000   0.01342  -0.00000  -0.00000
  32        4S          0.02778   0.16529   0.00000  -0.24589   0.39417
  33        4PX        -0.00460  -0.00034  -0.00000   0.00434  -0.01560
  34        4PY         0.01301   0.00096   0.00000  -0.02462   0.03641
  35        4PZ        -0.00000  -0.00000   0.00485  -0.00000  -0.00000
  36 4   Cl 1S         -0.00015   0.03528  -0.05587  -0.01530  -0.03643
  37        2S          0.00065  -0.20639   0.32858   0.08996   0.21422
  38        2PX        -0.00047   0.00933  -0.00849   0.00374  -0.00419
  39        2PY        -0.00066   0.01320  -0.01200  -0.00463  -0.00176
  40        2PZ         0.00114  -0.02285   0.01458   0.00569   0.01355
  41        3S         -0.00687   0.26953  -0.40428  -0.11068  -0.26357
  42        3PX         0.00014  -0.01939   0.01735  -0.00836   0.00841
  43        3PY         0.00020  -0.02742   0.02453   0.00962   0.00289
  44        3PZ        -0.00035   0.04750  -0.02907  -0.01163  -0.02770
  45        4S          0.02778   0.16529  -0.37933  -0.10385  -0.24730
  46        4PX        -0.00460  -0.00034   0.01400  -0.00090   0.00808
  47        4PY        -0.00651  -0.00048   0.01980   0.00647   0.00817
  48        4PZ         0.01127   0.00083  -0.02944  -0.00939  -0.02236
  49 5   Cl 1S         -0.00015   0.03528   0.00000   0.06681   0.01479
  50        2S          0.00065  -0.20639  -0.00000  -0.39291  -0.08700
  51        2PX         0.00140  -0.02799  -0.00000  -0.02438  -0.00540
  52        2PY        -0.00000   0.00000   0.00000  -0.00134   0.00606
  53        2PZ         0.00000   0.00000  -0.00621   0.00000   0.00000
  54        3S         -0.00687   0.26953   0.00000   0.48343   0.10704
  55        3PX        -0.00043   0.05817   0.00000   0.04912   0.01088
  56        3PY         0.00000  -0.00000  -0.00000   0.00290  -0.01311
  57        3PZ        -0.00000  -0.00000   0.01342  -0.00000  -0.00000
  58        4S          0.02778   0.16529   0.00000   0.45359   0.10043
  59        4PX         0.01380   0.00102   0.00000   0.04549   0.01007
  60        4PY        -0.00000  -0.00000  -0.00000   0.00105  -0.00474
  61        4PZ         0.00000  -0.00000   0.00485  -0.00000  -0.00000
                          26        27        28        29        30
                           O         O         O         O         O
     Eigenvalues --    -0.51822  -0.40578  -0.40578  -0.40578  -0.32043
   1 1   B  1S         -0.15685  -0.00000  -0.00000   0.00000   0.00000
   2        2S          0.16278   0.00000   0.00000  -0.00000   0.00000
   3        2PX         0.00000  -0.00000  -0.23774  -0.08116   0.00000
   4        2PY        -0.00000  -0.00000   0.08116  -0.23774  -0.00000
   5        2PZ        -0.00000   0.25121  -0.00000  -0.00000  -0.00000
   6        3S          0.59193   0.00000  -0.00000   0.00000  -0.00000
   7        3PX         0.00000  -0.00000  -0.18289  -0.06243  -0.00000
   8        3PY        -0.00000  -0.00000   0.06243  -0.18289  -0.00000
   9        3PZ        -0.00000   0.19326  -0.00000  -0.00000  -0.00000
  10 2   Cl 1S         -0.01781  -0.01125   0.00225   0.00763  -0.00000
  11        2S          0.10751   0.06830  -0.01365  -0.04633   0.00000
  12        2PX         0.03367   0.06935   0.07647  -0.01621  -0.11100
  13        2PY         0.04761   0.09808  -0.05044   0.02380   0.07849
  14        2PZ         0.08247   0.07443  -0.03395  -0.11522   0.00000
  15        3S         -0.10757  -0.07472   0.01493   0.05068  -0.00000
  16        3PX        -0.07173  -0.14891  -0.16653   0.03399   0.23825
  17        3PY        -0.10143  -0.21058   0.10909  -0.05346  -0.16848
  18        3PZ        -0.17569  -0.15732   0.07289   0.24739  -0.00000
  19        4S         -0.28022  -0.17761   0.03550   0.12047   0.00000
  20        4PX        -0.02420  -0.09531  -0.10858   0.02108   0.21487
  21        4PY        -0.03422  -0.13479   0.07050  -0.03620  -0.15194
  22        4PZ        -0.05928  -0.09861   0.04666   0.15835  -0.00000
  23 3   Cl 1S         -0.01781  -0.00000   0.00854  -0.01081  -0.00000
  24        2S          0.10751   0.00000  -0.05187   0.06563   0.00000
  25        2PX         0.03367   0.00000   0.03767   0.09747  -0.00000
  26        2PY        -0.09523   0.00000   0.11812  -0.09816  -0.00000
  27        2PZ         0.00000  -0.09545   0.00000   0.00000  -0.13594
  28        3S         -0.10757  -0.00000   0.05674  -0.07180  -0.00000
  29        3PX        -0.07172  -0.00000  -0.08322  -0.21008   0.00000
  30        3PY         0.20287  -0.00000  -0.25282   0.20841   0.00000
  31        3PZ        -0.00000   0.20742  -0.00000  -0.00000   0.29180
  32        4S         -0.28022  -0.00000   0.13487  -0.17067   0.00000
  33        4PX        -0.02420  -0.00000  -0.05525  -0.13515   0.00000
  34        4PY         0.06845  -0.00000  -0.16115   0.13142   0.00000
  35        4PZ        -0.00000   0.13486  -0.00000  -0.00000   0.26316
  36 4   Cl 1S         -0.01781   0.01125   0.00225   0.00763   0.00000
  37        2S          0.10751  -0.06830  -0.01365  -0.04633  -0.00000
  38        2PX         0.03367  -0.06935   0.07647  -0.01621   0.11100
  39        2PY         0.04761  -0.09808  -0.05044   0.02380  -0.07849
  40        2PZ        -0.08247   0.07443   0.03395   0.11522   0.00000
  41        3S         -0.10757   0.07472   0.01493   0.05068   0.00000
  42        3PX        -0.07173   0.14891  -0.16654   0.03399  -0.23825
  43        3PY        -0.10143   0.21058   0.10909  -0.05346   0.16848
  44        3PZ         0.17569  -0.15732  -0.07289  -0.24739  -0.00000
  45        4S         -0.28022   0.17761   0.03550   0.12047  -0.00000
  46        4PX        -0.02420   0.09531  -0.10858   0.02108  -0.21487
  47        4PY        -0.03422   0.13479   0.07050  -0.03620   0.15194
  48        4PZ         0.05928  -0.09861  -0.04666  -0.15835  -0.00000
  49 5   Cl 1S         -0.01781  -0.00000  -0.01304  -0.00445   0.00000
  50        2S          0.10751   0.00000   0.07917   0.02702  -0.00000
  51        2PX        -0.10100  -0.00000  -0.15083  -0.05148   0.00000
  52        2PY         0.00000   0.00000  -0.03083   0.09033  -0.00000
  53        2PZ         0.00000  -0.09545   0.00000   0.00000   0.13594
  54        3S         -0.10757  -0.00000  -0.08661  -0.02956   0.00000
  55        3PX         0.21517   0.00000   0.32148   0.10973  -0.00000
  56        3PY        -0.00000  -0.00000   0.06700  -0.19630   0.00000
  57        3PZ        -0.00000   0.20742  -0.00000  -0.00000  -0.29180
  58        4S         -0.28022  -0.00000  -0.20586  -0.07027   0.00000
  59        4PX         0.07260   0.00000   0.20379   0.06956  -0.00000
  60        4PY        -0.00000  -0.00000   0.04356  -0.12763   0.00000
  61        4PZ        -0.00000   0.13486  -0.00000  -0.00000  -0.26316
                          31        32        33        34        35
                           O         O         O         O         O
     Eigenvalues --    -0.32043  -0.28265  -0.28265  -0.28265  -0.26556
   1 1   B  1S          0.00000   0.00000   0.00000  -0.00000  -0.00000
   2        2S          0.00000   0.00000  -0.00000   0.00000  -0.00000
   3        2PX        -0.00000   0.00000  -0.13495  -0.02361  -0.00000
   4        2PY        -0.00000   0.00000   0.02361  -0.13495  -0.00000
   5        2PZ         0.00000  -0.13700  -0.00000  -0.00000  -0.00000
   6        3S         -0.00000  -0.00000  -0.00000   0.00000   0.00000
   7        3PX        -0.00000  -0.00000   0.05764   0.01008   0.00000
   8        3PY        -0.00000  -0.00000  -0.01008   0.05764   0.00000
   9        3PZ        -0.00000   0.05852   0.00000   0.00000   0.00000
  10 2   Cl 1S         -0.00000   0.00016   0.00005   0.00010  -0.00000
  11        2S          0.00000  -0.00081  -0.00025  -0.00052   0.00000
  12        2PX         0.06409  -0.00600  -0.13338  -0.02685  -0.11964
  13        2PY         0.09063  -0.00848   0.02045  -0.13699  -0.08271
  14        2PZ        -0.07849  -0.14825  -0.00445  -0.00939   0.09659
  15        3S         -0.00000   0.00948   0.00287   0.00606  -0.00000
  16        3PX        -0.13756   0.01245   0.28779   0.05764   0.25999
  17        3PY        -0.19453   0.01761  -0.04435   0.29528   0.17973
  18        3PZ         0.16847   0.31883   0.00923   0.01949  -0.20991
  19        4S          0.00000  -0.04233  -0.01281  -0.02705  -0.00000
  20        4PX        -0.12406   0.01929   0.25901   0.05661   0.23244
  21        4PY        -0.17544   0.02728  -0.03603   0.27060   0.16069
  22        4PZ         0.15194   0.30426   0.01430   0.03019  -0.18767
  23 3   Cl 1S         -0.00000  -0.00000   0.00010  -0.00017   0.00000
  24        2S          0.00000   0.00000  -0.00049   0.00087  -0.00000
  25        2PX        -0.12817   0.00000  -0.13517  -0.01662  -0.00000
  26        2PY        -0.04531   0.00000   0.03321  -0.14966  -0.00000
  27        2PZ         0.00000  -0.13356  -0.00000  -0.00000  -0.04666
  28        3S         -0.00000  -0.00000   0.00570  -0.01012   0.00000
  29        3PX         0.27512  -0.00000   0.29151   0.03640   0.00000
  30        3PY         0.09726  -0.00000  -0.07085   0.32160   0.00000
  31        3PZ        -0.00000   0.28834   0.00000   0.00000   0.10141
  32        4S          0.00000   0.00000  -0.02544   0.04517   0.00000
  33        4PX         0.24811  -0.00000   0.26476   0.02370   0.00000
  34        4PY         0.08772  -0.00000  -0.07708   0.31138   0.00000
  35        4PZ        -0.00000   0.25701   0.00000   0.00000   0.09066
  36 4   Cl 1S         -0.00000  -0.00016   0.00005   0.00010   0.00000
  37        2S          0.00000   0.00081  -0.00025  -0.00052  -0.00000
  38        2PX         0.06409   0.00600  -0.13338  -0.02685   0.11964
  39        2PY         0.09063   0.00848   0.02045  -0.13699   0.08271
  40        2PZ         0.07849  -0.14825   0.00445   0.00939   0.09659
  41        3S         -0.00000  -0.00948   0.00287   0.00606   0.00000
  42        3PX        -0.13756  -0.01245   0.28779   0.05764  -0.25999
  43        3PY        -0.19453  -0.01761  -0.04435   0.29528  -0.17973
  44        3PZ        -0.16847   0.31883  -0.00923  -0.01949  -0.20991
  45        4S          0.00000   0.04233  -0.01281  -0.02705   0.00000
  46        4PX        -0.12406  -0.01929   0.25901   0.05661  -0.23244
  47        4PY        -0.17544  -0.02728  -0.03603   0.27060  -0.16069
  48        4PZ        -0.15194   0.30426  -0.01430  -0.03019  -0.18767
  49 5   Cl 1S         -0.00000   0.00000  -0.00019  -0.00003   0.00000
  50        2S          0.00000  -0.00000   0.00098   0.00017  -0.00000
  51        2PX        -0.00000   0.00000  -0.15327  -0.02681   0.00000
  52        2PY        -0.13594   0.00000   0.02301  -0.13157   0.00000
  53        2PZ        -0.00000  -0.13356  -0.00000  -0.00000  -0.14652
  54        3S         -0.00000   0.00000  -0.01144  -0.00200   0.00000
  55        3PX         0.00000  -0.00000   0.32909   0.05756  -0.00000
  56        3PY         0.29180  -0.00000  -0.04968   0.28403  -0.00000
  57        3PZ         0.00000   0.28834   0.00000   0.00000   0.31841
  58        4S          0.00000  -0.00000   0.05107   0.00893   0.00000
  59        4PX         0.00000  -0.00000   0.32298   0.05649  -0.00000
  60        4PY         0.26316  -0.00000  -0.04428   0.25317  -0.00000
  61        4PZ         0.00000   0.25701   0.00000   0.00000   0.28467
                          36        37        38        39        40
                           O         O         V         V         V
     Eigenvalues --    -0.26556  -0.26556   0.38180   0.40370   0.40370
   1 1   B  1S         -0.00000  -0.00000  -0.24838   0.00000  -0.00000
   2        2S          0.00000  -0.00000   0.17029  -0.00000   0.00000
   3        2PX        -0.00000   0.00000  -0.00000   0.13480   0.46538
   4        2PY         0.00000  -0.00000   0.00000   0.46538  -0.13480
   5        2PZ        -0.00000  -0.00000  -0.00000  -0.00000  -0.00000
   6        3S          0.00000   0.00000   2.88203  -0.00000   0.00000
   7        3PX        -0.00000   0.00000  -0.00000   0.53176   1.83580
   8        3PY        -0.00000   0.00000   0.00000   1.83580  -0.53176
   9        3PZ         0.00000   0.00000  -0.00000  -0.00000  -0.00000
  10 2   Cl 1S          0.00000  -0.00000  -0.01511  -0.01112  -0.00385
  11        2S         -0.00000   0.00000   0.09671   0.07146   0.02476
  12        2PX        -0.08397   0.08271  -0.02749  -0.01193   0.03621
  13        2PY         0.05938  -0.11964  -0.03887   0.00960  -0.02520
  14        2PZ         0.00000   0.03531  -0.06733  -0.06103  -0.02115
  15        3S          0.00000  -0.00000  -0.05578  -0.03378  -0.01170
  16        3PX         0.18248  -0.17973   0.05297   0.02148  -0.07029
  17        3PY        -0.12903   0.25999   0.07490  -0.02063   0.04782
  18        3PZ        -0.00000  -0.07672   0.12974   0.11392   0.03947
  19        4S          0.00000  -0.00000  -0.70671  -0.65675  -0.22756
  20        4PX         0.16314  -0.16069   0.24441   0.14345  -0.30214
  21        4PY        -0.11536   0.23244   0.34564  -0.02803   0.23909
  22        4PZ        -0.00000  -0.06859   0.59867   0.62888   0.21790
  23 3   Cl 1S         -0.00000   0.00000  -0.01511   0.01657  -0.01187
  24        2S          0.00000  -0.00000   0.09671  -0.10648   0.07630
  25        2PX         0.16794  -0.00000  -0.02749   0.05012   0.01824
  26        2PY         0.05937  -0.00000   0.07775  -0.06017   0.06226
  27        2PZ        -0.00000  -0.17191  -0.00000  -0.00000  -0.00000
  28        3S         -0.00000   0.00000  -0.05578   0.05033  -0.03607
  29        3PX        -0.36496   0.00000   0.05296  -0.09432  -0.03675
  30        3PY        -0.12903   0.00000  -0.14981   0.10960  -0.11543
  31        3PZ         0.00000   0.37358   0.00000   0.00000   0.00000
  32        4S         -0.00000   0.00000  -0.70671   0.97857  -0.70123
  33        4PX        -0.32629   0.00000   0.24440  -0.49582  -0.11699
  34        4PY        -0.11536   0.00000  -0.69129   0.69090  -0.66206
  35        4PZ         0.00000   0.33399   0.00000   0.00000   0.00000
  36 4   Cl 1S          0.00000   0.00000  -0.01511  -0.01112  -0.00385
  37        2S         -0.00000  -0.00000   0.09671   0.07146   0.02476
  38        2PX        -0.08397  -0.08271  -0.02749  -0.01193   0.03621
  39        2PY         0.05938   0.11964  -0.03887   0.00960  -0.02520
  40        2PZ         0.00000   0.03531   0.06733   0.06103   0.02115
  41        3S          0.00000   0.00000  -0.05578  -0.03378  -0.01170
  42        3PX         0.18248   0.17973   0.05297   0.02148  -0.07029
  43        3PY        -0.12904  -0.25998   0.07490  -0.02063   0.04782
  44        3PZ        -0.00000  -0.07672  -0.12974  -0.11392  -0.03947
  45        4S          0.00000   0.00000  -0.70671  -0.65675  -0.22756
  46        4PX         0.16314   0.16069   0.24441   0.14345  -0.30214
  47        4PY        -0.11536  -0.23244   0.34564  -0.02803   0.23909
  48        4PZ        -0.00000  -0.06859  -0.59867  -0.62888  -0.21790
  49 5   Cl 1S          0.00000  -0.00000  -0.01511   0.00567   0.01958
  50        2S         -0.00000   0.00000   0.09671  -0.03645  -0.12583
  51        2PX        -0.00000   0.00000   0.08247  -0.02513  -0.08677
  52        2PY        -0.17813   0.00000  -0.00000   0.04484  -0.01299
  53        2PZ         0.00000   0.10130  -0.00000  -0.00000  -0.00000
  54        3S          0.00000   0.00000  -0.05578   0.01723   0.05948
  55        3PX         0.00000  -0.00000  -0.15889   0.04613   0.15926
  56        3PY         0.38710  -0.00000   0.00000  -0.08640   0.02502
  57        3PZ        -0.00000  -0.22013   0.00000   0.00000   0.00000
  58        4S         -0.00000  -0.00000  -0.70671   0.33494   1.15635
  59        4PX         0.00000  -0.00000  -0.73322   0.27951   0.96502
  60        4PY         0.34608  -0.00000   0.00001  -0.39111   0.11327
  61        4PZ        -0.00000  -0.19681   0.00000   0.00000   0.00000
                          41        42        43        44        45
                           V         V         V         V         V
     Eigenvalues --     0.40370   0.80055   0.81953   0.81953   0.81953
   1 1   B  1S         -0.00000  -0.07306  -0.00000   0.00000  -0.00000
   2        2S          0.00000   0.39905   0.00000  -0.00000   0.00000
   3        2PX         0.00000  -0.00000  -0.06327  -0.98421  -0.00000
   4        2PY         0.00000   0.00000  -0.98421   0.06328  -0.00000
   5        2PZ         0.48451  -0.00000   0.00000   0.00000  -0.98625
   6        3S          0.00000   1.39764   0.00000  -0.00000  -0.00000
   7        3PX         0.00000   0.00000   0.10065   1.56559   0.00000
   8        3PY         0.00000  -0.00000   1.56559  -0.10065   0.00000
   9        3PZ         1.91127   0.00000  -0.00000  -0.00000   1.56882
  10 2   Cl 1S         -0.01664   0.03202  -0.00814  -0.00500  -0.01351
  11        2S          0.10696  -0.19302   0.05095   0.03133   0.08458
  12        2PX        -0.03729   0.00500   0.00520   0.09249  -0.00129
  13        2PY        -0.05274   0.00707   0.09187  -0.00665  -0.00182
  14        2PZ        -0.04466   0.01225  -0.00190  -0.00117   0.09001
  15        3S         -0.05056   0.94008  -0.19153  -0.11777  -0.31798
  16        3PX         0.06961  -0.02732  -0.01018  -0.28906   0.01452
  17        3PY         0.09844  -0.03864  -0.28207   0.02654   0.02054
  18        3PZ         0.08055  -0.06693   0.02143   0.01317  -0.25948
  19        4S         -0.98297  -1.19431  -0.16389  -0.10077  -0.27209
  20        4PX         0.38427   0.13362   0.06798   0.01346   0.11600
  21        4PY         0.54342   0.18896   0.06931   0.06265   0.16405
  22        4PZ         0.53406   0.32730   0.17115   0.10524   0.25458
  23 3   Cl 1S          0.00000   0.03202   0.01522  -0.00651   0.00000
  24        2S         -0.00000  -0.19302  -0.09525   0.04073  -0.00000
  25        2PX         0.00000   0.00500   0.00743   0.09235   0.00000
  26        2PY        -0.00000  -0.01414   0.08887  -0.00422   0.00000
  27        2PZ         0.04669   0.00000  -0.00000  -0.00000   0.09316
  28        3S          0.00000   0.94008   0.35808  -0.15310   0.00000
  29        3PX        -0.00000  -0.02732  -0.03528  -0.28745  -0.00000
  30        3PY         0.00000   0.07728  -0.24819  -0.00085  -0.00000
  31        3PZ        -0.08996   0.00000   0.00000   0.00000  -0.29505
  32        4S          0.00000  -1.19431   0.30640  -0.13100   0.00000
  33        4PX        -0.00000   0.13361  -0.13252   0.02635  -0.00000
  34        4PY         0.00000  -0.37793   0.33998  -0.15607   0.00000
  35        4PZ        -0.40718  -0.00000   0.00000   0.00000  -0.02956
  36 4   Cl 1S          0.01664   0.03202  -0.00814  -0.00500   0.01351
  37        2S         -0.10696  -0.19302   0.05095   0.03133  -0.08458
  38        2PX         0.03729   0.00500   0.00520   0.09249   0.00129
  39        2PY         0.05274   0.00707   0.09187  -0.00665   0.00182
  40        2PZ        -0.04466  -0.01225   0.00190   0.00117   0.09001
  41        3S          0.05056   0.94008  -0.19153  -0.11777   0.31798
  42        3PX        -0.06961  -0.02732  -0.01018  -0.28906  -0.01452
  43        3PY        -0.09844  -0.03864  -0.28207   0.02654  -0.02054
  44        3PZ         0.08055   0.06693  -0.02142  -0.01317  -0.25948
  45        4S          0.98296  -1.19431  -0.16389  -0.10077   0.27209
  46        4PX        -0.38427   0.13362   0.06798   0.01346  -0.11600
  47        4PY        -0.54342   0.18896   0.06931   0.06265  -0.16405
  48        4PZ         0.53406  -0.32730  -0.17115  -0.10524   0.25458
  49 5   Cl 1S          0.00000   0.03202   0.00106   0.01652   0.00000
  50        2S         -0.00000  -0.19302  -0.00665  -0.10338  -0.00000
  51        2PX        -0.00000  -0.01500   0.00567   0.08825   0.00000
  52        2PY         0.00000   0.00000   0.09297  -0.00598   0.00000
  53        2PZ         0.04669  -0.00000  -0.00000  -0.00000   0.09316
  54        3S          0.00000   0.94008   0.02498   0.38864   0.00000
  55        3PX         0.00000   0.08197  -0.01551  -0.24120  -0.00000
  56        3PY        -0.00000  -0.00000  -0.29444   0.01893  -0.00000
  57        3PZ        -0.08996   0.00000   0.00000   0.00000  -0.29505
  58        4S          0.00000  -1.19431   0.02137   0.33255   0.00000
  59        4PX         0.00000  -0.40085   0.02544   0.39583   0.00000
  60        4PY        -0.00000   0.00001  -0.02950   0.00189  -0.00000
  61        4PZ        -0.40718  -0.00000   0.00000   0.00000  -0.02956
                          46        47        48        49        50
                           V         V         V         V         V
     Eigenvalues --     0.93237   0.93237   0.93237   0.93567   0.94824
   1 1   B  1S         -0.00000   0.00000   0.00000   0.01690  -0.00000
   2        2S          0.00000  -0.00000  -0.00000  -0.32429   0.00000
   3        2PX        -0.06120  -0.28768  -0.00000   0.00000  -0.00000
   4        2PY        -0.28768   0.06120   0.00000  -0.00000  -0.00000
   5        2PZ         0.00000  -0.00000   0.29412   0.00000   0.00000
   6        3S         -0.00002   0.00001   0.00000   2.20485  -0.00000
   7        3PX         0.21527   1.01189   0.00000  -0.00000   0.00000
   8        3PY         1.01188  -0.21527  -0.00000   0.00001   0.00000
   9        3PZ        -0.00000   0.00000  -1.03453  -0.00000  -0.00000
  10 2   Cl 1S          0.02047   0.00880  -0.03151  -0.00314  -0.00000
  11        2S         -0.12403  -0.05330   0.19091   0.02255   0.00000
  12        2PX        -0.03545   0.02599   0.06942   0.06025  -0.14541
  13        2PY        -0.01841  -0.03706   0.09817   0.08521   0.10282
  14        2PZ        -0.11047  -0.04747   0.12366   0.14758   0.00000
  15        3S          0.58282   0.25046  -0.89712   0.01657  -0.00000
  16        3PX         0.12524  -0.06992  -0.23738  -0.20839   0.50043
  17        3PY         0.08190   0.12269  -0.33569  -0.29471  -0.35386
  18        3PZ         0.37774   0.16233  -0.44220  -0.51045  -0.00000
  19        4S         -0.82010  -0.35243   1.26237  -0.44798   0.00000
  20        4PX        -0.08162  -0.11954   0.09519   0.30305  -0.45166
  21        4PY        -0.18043  -0.01780   0.13462   0.42857   0.31938
  22        4PZ        -0.15149  -0.06510   0.32822   0.74232   0.00000
  23 3   Cl 1S         -0.03291   0.02015   0.00000  -0.00314   0.00000
  24        2S          0.19940  -0.12210  -0.00000   0.02255  -0.00000
  25        2PX         0.08216   0.00097  -0.00000   0.06025   0.00000
  26        2PY        -0.15971   0.11593   0.00000  -0.17042   0.00000
  27        2PZ        -0.00000   0.00000  -0.04639  -0.00000  -0.17809
  28        3S         -0.93703   0.57378   0.00000   0.01656  -0.00000
  29        3PX        -0.27689   0.01562   0.00000  -0.20839  -0.00000
  30        3PY         0.56506  -0.40043  -0.00000   0.58943  -0.00000
  31        3PZ         0.00000  -0.00000   0.13923   0.00000   0.61290
  32        4S          1.31852  -0.80738  -0.00000  -0.44796   0.00000
  33        4PX         0.07964  -0.15385  -0.00000   0.30304   0.00000
  34        4PY        -0.37418   0.19198   0.00000  -0.85716   0.00000
  35        4PZ         0.00000  -0.00000   0.09505   0.00000  -0.55318
  36 4   Cl 1S          0.02047   0.00880   0.03151  -0.00314   0.00000
  37        2S         -0.12403  -0.05330  -0.19091   0.02255  -0.00000
  38        2PX        -0.03545   0.02599  -0.06942   0.06025   0.14541
  39        2PY        -0.01841  -0.03706  -0.09817   0.08521  -0.10282
  40        2PZ         0.11047   0.04747   0.12366  -0.14758   0.00000
  41        3S          0.58282   0.25046   0.89712   0.01657   0.00000
  42        3PX         0.12524  -0.06992   0.23738  -0.20839  -0.50043
  43        3PY         0.08190   0.12269   0.33569  -0.29471   0.35386
  44        3PZ        -0.37774  -0.16233  -0.44220   0.51045  -0.00000
  45        4S         -0.82011  -0.35243  -1.26237  -0.44798  -0.00000
  46        4PX        -0.08162  -0.11954  -0.09519   0.30305   0.45166
  47        4PY        -0.18043  -0.01780  -0.13462   0.42857  -0.31938
  48        4PZ         0.15149   0.06510   0.32822  -0.74232   0.00000
  49 5   Cl 1S         -0.00803  -0.03774  -0.00000  -0.00314  -0.00000
  50        2S          0.04865   0.22870   0.00000   0.02255   0.00000
  51        2PX        -0.04342  -0.20411  -0.00000  -0.18075   0.00000
  52        2PY         0.04537  -0.00965  -0.00000   0.00000   0.00000
  53        2PZ        -0.00000   0.00000  -0.04639  -0.00000   0.17809
  54        3S         -0.22862  -1.07470  -0.00000   0.01657  -0.00000
  55        3PX         0.15250   0.71688   0.00000   0.62517  -0.00000
  56        3PY        -0.13619   0.02896   0.00000  -0.00001  -0.00000
  57        3PZ         0.00000  -0.00000   0.13924   0.00000  -0.61290
  58        4S          0.32170   1.51224   0.00000  -0.44798   0.00000
  59        4PX        -0.09255  -0.43508  -0.00000  -0.90915   0.00000
  60        4PY        -0.09297   0.01978   0.00000   0.00001   0.00000
  61        4PZ         0.00000  -0.00000   0.09505   0.00000   0.55318
                          51        52        53        54        55
                           V         V         V         V         V
     Eigenvalues --     0.94824   0.97688   0.97688   0.97688   1.08151
   1 1   B  1S          0.00000   0.00000   0.00000  -0.00000   0.00000
   2        2S         -0.00000  -0.00000  -0.00000   0.00000   0.00000
   3        2PX         0.00000  -0.00000  -0.45253  -0.26826  -0.00000
   4        2PY         0.00000   0.00000   0.26826  -0.45253   0.00000
   5        2PZ         0.00000  -0.52607   0.00000  -0.00000  -0.00000
   6        3S          0.00001  -0.00000  -0.00000   0.00000  -0.00000
   7        3PX        -0.00000   0.00000   2.02709   1.20167   0.00000
   8        3PY        -0.00000  -0.00000  -1.20167   2.02709  -0.00000
   9        3PZ        -0.00000   2.35650  -0.00000   0.00000  -0.00000
  10 2   Cl 1S         -0.00000   0.01177   0.00067   0.00829   0.00000
  11        2S          0.00000  -0.06736  -0.00382  -0.04747  -0.00000
  12        2PX         0.08395   0.06715  -0.15010  -0.04392   0.15416
  13        2PY         0.11873   0.09496   0.09663  -0.08699   0.08425
  14        2PZ        -0.10282  -0.01446   0.00934   0.11592  -0.11158
  15        3S         -0.00000   0.46107   0.02618   0.32497   0.00000
  16        3PX        -0.28893  -0.23712   0.54683   0.16502  -0.56107
  17        3PY        -0.40860  -0.33533  -0.35118   0.32395  -0.30664
  18        3PZ         0.35386   0.07053  -0.03298  -0.40937   0.40610
  19        4S         -0.00000  -1.38603  -0.07869  -0.97691  -0.00000
  20        4PX         0.26078   0.50350  -0.85448  -0.16861   0.63359
  21        4PY         0.36878   0.71204   0.56392  -0.38121   0.34627
  22        4PZ        -0.31938   0.20673   0.07002   0.86926  -0.45859
  23 3   Cl 1S          0.00000   0.00000   0.01106  -0.00924   0.00000
  24        2S         -0.00000  -0.00000  -0.06331   0.05288  -0.00000
  25        2PX        -0.16791   0.00000  -0.09080  -0.14396  -0.00000
  26        2PY        -0.05936  -0.00000  -0.08728  -0.00481  -0.00000
  27        2PZ        -0.00000  -0.17893   0.00000  -0.00000   0.03435
  28        3S          0.00000   0.00000   0.43340  -0.36199   0.00000
  29        3PX         0.57785  -0.00000   0.33741   0.51830   0.00000
  30        3PY         0.20429   0.00000   0.29828   0.03374   0.00000
  31        3PZ         0.00000   0.65135  -0.00000   0.00000  -0.12503
  32        4S         -0.00000  -0.00000  -1.30286   1.08819  -0.00000
  33        4PX        -0.52154   0.00000  -0.40980  -0.91878  -0.00000
  34        4PY        -0.18439  -0.00000  -0.81516   0.23501  -0.00000
  35        4PZ        -0.00000  -1.02657   0.00000  -0.00000   0.14119
  36 4   Cl 1S         -0.00000  -0.01177   0.00067   0.00829  -0.00000
  37        2S          0.00000   0.06736  -0.00382  -0.04747   0.00000
  38        2PX         0.08395  -0.06715  -0.15010  -0.04392  -0.15415
  39        2PY         0.11873  -0.09496   0.09663  -0.08699  -0.08425
  40        2PZ         0.10282  -0.01446  -0.00934  -0.11592  -0.11158
  41        3S         -0.00000  -0.46107   0.02618   0.32497  -0.00000
  42        3PX        -0.28893   0.23712   0.54683   0.16502   0.56107
  43        3PY        -0.40860   0.33533  -0.35118   0.32395   0.30664
  44        3PZ        -0.35386   0.07053   0.03298   0.40937   0.40610
  45        4S         -0.00000   1.38603  -0.07869  -0.97691   0.00000
  46        4PX         0.26078  -0.50350  -0.85448  -0.16861  -0.63359
  47        4PY         0.36878  -0.71204   0.56392  -0.38121  -0.34627
  48        4PZ         0.31938   0.20673  -0.07002  -0.86926  -0.45859
  49 5   Cl 1S          0.00000  -0.00000  -0.01240  -0.00735  -0.00000
  50        2S         -0.00000   0.00000   0.07096   0.04207   0.00000
  51        2PX        -0.00000   0.00000   0.05831   0.03456   0.00000
  52        2PY        -0.17809   0.00000   0.09124  -0.15392   0.00000
  53        2PZ         0.00000  -0.17893   0.00000  -0.00000   0.18880
  54        3S          0.00000  -0.00000  -0.48576  -0.28795  -0.00000
  55        3PX         0.00001  -0.00000  -0.18915  -0.11211  -0.00000
  56        3PY         0.61290  -0.00000  -0.33214   0.56030  -0.00000
  57        3PZ        -0.00000   0.65135  -0.00000   0.00000  -0.68717
  58        4S         -0.00000   0.00000   1.46025   0.86562   0.00000
  59        4PX        -0.00001   0.00000   0.70829   0.41985   0.00000
  60        4PY        -0.55318   0.00000   0.52347  -0.88308   0.00000
  61        4PZ         0.00000  -1.02658   0.00000  -0.00000   0.77599
                          56        57        58        59        60
                           V         V         V         V         V
     Eigenvalues --     1.08151   1.08151   1.22952   1.22952   1.22952
   1 1   B  1S         -0.00000  -0.00000  -0.00000  -0.00000   0.00000
   2        2S          0.00000  -0.00000  -0.00000  -0.00000   0.00000
   3        2PX        -0.00000   0.00000  -0.00000   0.16223   0.06217
   4        2PY         0.00000   0.00000   0.00000  -0.06217   0.16223
   5        2PZ         0.00000  -0.00000  -0.17373  -0.00000  -0.00000
   6        3S         -0.00000   0.00000   0.00000   0.00000  -0.00000
   7        3PX         0.00000  -0.00000  -0.00000   0.85248   0.32671
   8        3PY         0.00000  -0.00000   0.00000  -0.32671   0.85248
   9        3PZ         0.00000  -0.00000  -0.91294  -0.00000  -0.00000
  10 2   Cl 1S          0.00000  -0.00000  -0.03455   0.00603   0.02368
  11        2S         -0.00000   0.00000   0.20801  -0.03632  -0.14253
  12        2PX         0.10142  -0.08425  -0.04044   0.06675   0.05058
  13        2PY        -0.07172   0.15415  -0.05719  -0.01289   0.09887
  14        2PZ         0.00000  -0.05461  -0.16298   0.01730   0.06787
  15        3S          0.00000  -0.00000  -1.22283   0.21351   0.83790
  16        3PX        -0.36915   0.30664   0.16454  -0.25131  -0.19805
  17        3PY         0.26104  -0.56107   0.23269   0.04467  -0.38202
  18        3PZ        -0.00000   0.19875   0.64140  -0.07037  -0.27617
  19        4S         -0.00000   0.00000   1.77978  -0.31076  -1.21952
  20        4PX         0.41687  -0.34627  -0.36743   0.24199   0.31992
  21        4PY        -0.29478   0.63359  -0.51961   0.02257   0.53388
  22        4PZ         0.00000  -0.22444  -1.09045   0.15714   0.61669
  23 3   Cl 1S          0.00000   0.00000  -0.00000   0.02745  -0.03221
  24        2S         -0.00000  -0.00000   0.00000  -0.16525   0.19390
  25        2PX        -0.20285  -0.00000  -0.00000   0.09181  -0.01482
  26        2PY        -0.07172  -0.00000   0.00000  -0.11374   0.16630
  27        2PZ        -0.00000   0.21240  -0.06392  -0.00000  -0.00000
  28        3S          0.00000   0.00000  -0.00000   0.97145  -1.13985
  29        3PX         0.73832   0.00000   0.00000  -0.35329   0.06807
  30        3PY         0.26102   0.00000  -0.00000   0.45502  -0.65639
  31        3PZ         0.00000  -0.77305   0.23836   0.00000   0.00000
  32        4S         -0.00000  -0.00000   0.00000  -1.41391   1.65900
  33        4PX        -0.83375  -0.00000  -0.00000   0.46972  -0.27433
  34        4PY        -0.29476  -0.00000   0.00000  -0.89375   1.14655
  35        4PZ        -0.00000   0.87297  -0.19045  -0.00000  -0.00000
  36 4   Cl 1S          0.00000   0.00000   0.03455   0.00603   0.02368
  37        2S         -0.00000  -0.00000  -0.20801  -0.03632  -0.14253
  38        2PX         0.10143   0.08425   0.04044   0.06675   0.05058
  39        2PY        -0.07172  -0.15416   0.05719  -0.01289   0.09887
  40        2PZ         0.00000  -0.05461  -0.16298  -0.01730  -0.06787
  41        3S          0.00000   0.00000   1.22283   0.21351   0.83790
  42        3PX        -0.36915  -0.30664  -0.16454  -0.25131  -0.19805
  43        3PY         0.26104   0.56107  -0.23269   0.04467  -0.38202
  44        3PZ        -0.00000   0.19875   0.64140   0.07037   0.27617
  45        4S         -0.00000  -0.00000  -1.77978  -0.31076  -1.21953
  46        4PX         0.41687   0.34627   0.36743   0.24199   0.31992
  47        4PY        -0.29478  -0.63359   0.51961   0.02257   0.53388
  48        4PZ         0.00000  -0.22444  -1.09045  -0.15715  -0.61669
  49 5   Cl 1S         -0.00000   0.00000   0.00000  -0.03951  -0.01514
  50        2S          0.00000  -0.00000  -0.00000   0.23789   0.09117
  51        2PX         0.00000   0.00000  -0.00000   0.19843   0.07605
  52        2PY         0.21516   0.00000   0.00000  -0.02288   0.05969
  53        2PZ        -0.00000  -0.10319  -0.06392  -0.00000  -0.00000
  54        3S         -0.00000   0.00000   0.00000  -1.39848  -0.53594
  55        3PX        -0.00001  -0.00000   0.00000  -0.78710  -0.30165
  56        3PY        -0.78310  -0.00000  -0.00000   0.08531  -0.22257
  57        3PZ         0.00000   0.37556   0.23836   0.00000   0.00000
  58        4S          0.00000  -0.00000  -0.00000   2.03543   0.78005
  59        4PX         0.00001   0.00000  -0.00000   1.43844   0.55126
  60        4PY         0.88432   0.00000   0.00000  -0.06817   0.17783
  61        4PZ        -0.00000  -0.42410  -0.19045  -0.00000  -0.00000
                          61
                           V
     Eigenvalues --     1.70970
   1 1   B  1S         -0.17685
   2        2S         -2.51133
   3        2PX        -0.00000
   4        2PY         0.00000
   5        2PZ        -0.00000
   6        3S          7.28896
   7        3PX         0.00000
   8        3PY        -0.00000
   9        3PZ         0.00000
  10 2   Cl 1S          0.01000
  11        2S         -0.04943
  12        2PX        -0.00884
  13        2PY        -0.01250
  14        2PZ        -0.02165
  15        3S          0.69220
  16        3PX         0.02983
  17        3PY         0.04219
  18        3PZ         0.07308
  19        4S         -2.23535
  20        4PX         0.35818
  21        4PY         0.50653
  22        4PZ         0.87734
  23 3   Cl 1S          0.01000
  24        2S         -0.04943
  25        2PX        -0.00884
  26        2PY         0.02500
  27        2PZ        -0.00000
  28        3S          0.69220
  29        3PX         0.02983
  30        3PY        -0.08438
  31        3PZ         0.00000
  32        4S         -2.23535
  33        4PX         0.35816
  34        4PY        -1.01307
  35        4PZ        -0.00000
  36 4   Cl 1S          0.01000
  37        2S         -0.04943
  38        2PX        -0.00884
  39        2PY        -0.01250
  40        2PZ         0.02165
  41        3S          0.69220
  42        3PX         0.02983
  43        3PY         0.04219
  44        3PZ        -0.07308
  45        4S         -2.23535
  46        4PX         0.35818
  47        4PY         0.50653
  48        4PZ        -0.87734
  49 5   Cl 1S          0.01000
  50        2S         -0.04943
  51        2PX         0.02651
  52        2PY        -0.00000
  53        2PZ        -0.00000
  54        3S          0.69220
  55        3PX        -0.08950
  56        3PY         0.00000
  57        3PZ         0.00000
  58        4S         -2.23535
  59        4PX        -1.07451
  60        4PY         0.00001
  61        4PZ        -0.00000
     Density Matrix:
                           1         2         3         4         5
   1 1   B  1S          2.03228
   2        2S          0.13196   0.10011
   3        2PX        -0.00000  -0.00000   0.18713
   4        2PY         0.00000   0.00000  -0.00000   0.18713
   5        2PZ        -0.00000  -0.00000   0.00000   0.00000   0.18713
   6        3S         -0.44728   0.21556   0.00000  -0.00000   0.00000
   7        3PX        -0.00000   0.00000   0.07862  -0.00000  -0.00000
   8        3PY         0.00000  -0.00000  -0.00000   0.07862  -0.00000
   9        3PZ         0.00000   0.00000   0.00000   0.00000   0.07862
  10 2   Cl 1S         -0.00112   0.00847   0.00283   0.00401   0.00694
  11        2S          0.00777  -0.02440  -0.01538  -0.02175  -0.03768
  12        2PX        -0.01304   0.01246   0.00124   0.02283   0.03954
  13        2PY        -0.01844   0.01763   0.02283   0.01738   0.05592
  14        2PZ        -0.03194   0.03053   0.03954   0.05592   0.08195
  15        3S         -0.03491   0.02207   0.01921   0.02717   0.04706
  16        3PX         0.02676  -0.02770  -0.00550  -0.04727  -0.08187
  17        3PY         0.03784  -0.03918  -0.04727  -0.03892  -0.11578
  18        3PZ         0.06554  -0.06786  -0.08187  -0.11578  -0.17261
  19        4S          0.10950  -0.04719   0.00184   0.00261   0.00451
  20        4PX        -0.00148  -0.00901  -0.02452  -0.03248  -0.05625
  21        4PY        -0.00209  -0.01274  -0.03248  -0.04748  -0.07955
  22        4PZ        -0.00362  -0.02207  -0.05625  -0.07955  -0.13934
  23 3   Cl 1S         -0.00112   0.00847   0.00283  -0.00802   0.00000
  24        2S          0.00777  -0.02440  -0.01538   0.04350   0.00000
  25        2PX        -0.01304   0.01246   0.00123  -0.04566  -0.00000
  26        2PY         0.03688  -0.03525  -0.04566   0.11424   0.00000
  27        2PZ        -0.00000  -0.00000  -0.00000   0.00000  -0.01491
  28        3S         -0.03491   0.02207   0.01921  -0.05434   0.00000
  29        3PX         0.02675  -0.02770  -0.00549   0.09453   0.00000
  30        3PY        -0.07568   0.07836   0.09453  -0.23946  -0.00000
  31        3PZ         0.00000   0.00000  -0.00000   0.00000   0.02793
  32        4S          0.10950  -0.04719   0.00184  -0.00521  -0.00000
  33        4PX        -0.00148  -0.00901  -0.02452   0.06495   0.00000
  34        4PY         0.00418   0.02548   0.06495  -0.18526  -0.00000
  35        4PZ         0.00000   0.00000  -0.00000  -0.00000  -0.00156
  36 4   Cl 1S         -0.00112   0.00847   0.00283   0.00401  -0.00694
  37        2S          0.00777  -0.02440  -0.01538  -0.02175   0.03768
  38        2PX        -0.01304   0.01246   0.00124   0.02283  -0.03954
  39        2PY        -0.01844   0.01763   0.02283   0.01738  -0.05592
  40        2PZ         0.03194  -0.03053  -0.03954  -0.05592   0.08195
  41        3S         -0.03491   0.02207   0.01921   0.02717  -0.04706
  42        3PX         0.02676  -0.02770  -0.00550  -0.04727   0.08187
  43        3PY         0.03784  -0.03918  -0.04727  -0.03892   0.11578
  44        3PZ        -0.06554   0.06786   0.08187   0.11578  -0.17261
  45        4S          0.10950  -0.04719   0.00184   0.00261  -0.00451
  46        4PX        -0.00148  -0.00901  -0.02452  -0.03248   0.05625
  47        4PY        -0.00209  -0.01274  -0.03248  -0.04748   0.07955
  48        4PZ         0.00362   0.02207   0.05625   0.07955  -0.13934
  49 5   Cl 1S         -0.00112   0.00847  -0.00850   0.00000  -0.00000
  50        2S          0.00777  -0.02440   0.04614  -0.00000   0.00000
  51        2PX         0.03912  -0.03739   0.13038  -0.00000   0.00000
  52        2PY        -0.00000   0.00000  -0.00000  -0.01491   0.00000
  53        2PZ        -0.00000  -0.00000   0.00000  -0.00000  -0.01491
  54        3S         -0.03491   0.02207  -0.05764   0.00000   0.00000
  55        3PX        -0.08027   0.08311  -0.27288   0.00000  -0.00000
  56        3PY         0.00000  -0.00000   0.00000   0.02793   0.00000
  57        3PZ         0.00000   0.00000  -0.00000   0.00000   0.02793
  58        4S          0.10950  -0.04719  -0.00553   0.00000  -0.00000
  59        4PX         0.00444   0.02703  -0.20823   0.00000  -0.00000
  60        4PY        -0.00000  -0.00000   0.00000  -0.00156   0.00000
  61        4PZ         0.00000   0.00000  -0.00000  -0.00000  -0.00156
                           6         7         8         9        10
   6        3S          0.82543
   7        3PX         0.00000   0.08390
   8        3PY        -0.00000   0.00000   0.08390
   9        3PZ        -0.00000  -0.00000  -0.00000   0.08390
  10 2   Cl 1S         -0.03885  -0.00998  -0.01411  -0.02444   2.14400
  11        2S          0.10754   0.02944   0.04163   0.07210  -0.57258
  12        2PX         0.04105  -0.03120   0.00999   0.01731  -0.00136
  13        2PY         0.05805   0.00999  -0.02414   0.02448  -0.00193
  14        2PZ         0.10055   0.01731   0.02448   0.00412  -0.00334
  15        3S         -0.00131  -0.01239  -0.01753  -0.03036  -0.03394
  16        3PX        -0.09346   0.09164  -0.03263  -0.05652   0.00377
  17        3PY        -0.13218  -0.03263   0.06857  -0.07993   0.00533
  18        3PZ        -0.22894  -0.05652  -0.07993  -0.02373   0.00923
  19        4S         -0.27376  -0.03491  -0.04938  -0.08552   0.17126
  20        4PX        -0.02713   0.06788  -0.01942  -0.03364  -0.00687
  21        4PY        -0.03837  -0.01942   0.05414  -0.04758  -0.00972
  22        4PZ        -0.06646  -0.03364  -0.04758  -0.00079  -0.01683
  23 3   Cl 1S         -0.03885  -0.00998   0.02822  -0.00000  -0.00004
  24        2S          0.10754   0.02943  -0.08325  -0.00000   0.00035
  25        2PX         0.04105  -0.03120  -0.01998   0.00000   0.00037
  26        2PY        -0.11610  -0.01998   0.01826   0.00000   0.00117
  27        2PZ         0.00000   0.00000   0.00000  -0.03827   0.00127
  28        3S         -0.00131  -0.01239   0.03506   0.00000   0.00105
  29        3PX        -0.09346   0.09165   0.06527  -0.00000  -0.00091
  30        3PY         0.26436   0.06527  -0.06989  -0.00000  -0.00184
  31        3PZ        -0.00000   0.00000  -0.00000   0.11472  -0.00255
  32        4S         -0.27376  -0.03491   0.09875  -0.00000  -0.00155
  33        4PX        -0.02713   0.06788   0.03884  -0.00000   0.00031
  34        4PY         0.07674   0.03884  -0.02826  -0.00000  -0.00281
  35        4PZ        -0.00000   0.00000  -0.00000   0.08161  -0.00111
  36 4   Cl 1S         -0.03885  -0.00998  -0.01411   0.02444  -0.00004
  37        2S          0.10754   0.02944   0.04163  -0.07210   0.00035
  38        2PX         0.04105  -0.03120   0.00999  -0.01731   0.00037
  39        2PY         0.05805   0.00999  -0.02414  -0.02448   0.00052
  40        2PZ        -0.10055  -0.01731  -0.02448   0.00412   0.00164
  41        3S         -0.00131  -0.01239  -0.01753   0.03036   0.00105
  42        3PX        -0.09346   0.09164  -0.03263   0.05652  -0.00091
  43        3PY        -0.13218  -0.03263   0.06857   0.07993  -0.00129
  44        3PZ         0.22894   0.05652   0.07993  -0.02373  -0.00287
  45        4S         -0.27376  -0.03491  -0.04938   0.08552  -0.00155
  46        4PX        -0.02713   0.06788  -0.01942   0.03364   0.00031
  47        4PY        -0.03837  -0.01942   0.05414   0.04758   0.00044
  48        4PZ         0.06646   0.03364   0.04758  -0.00079  -0.00299
  49 5   Cl 1S         -0.03885   0.02993  -0.00000  -0.00000  -0.00004
  50        2S          0.10754  -0.08830   0.00000  -0.00000   0.00035
  51        2PX        -0.12314   0.02532  -0.00000   0.00000   0.00098
  52        2PY         0.00000  -0.00000  -0.03827   0.00000   0.00073
  53        2PZ         0.00000   0.00000   0.00000  -0.03827   0.00127
  54        3S         -0.00131   0.03718  -0.00000  -0.00000   0.00105
  55        3PX         0.28039  -0.09296   0.00000  -0.00000  -0.00143
  56        3PY        -0.00000   0.00000   0.11472  -0.00000  -0.00147
  57        3PZ        -0.00000  -0.00000  -0.00000   0.11472  -0.00255
  58        4S         -0.27376   0.10474  -0.00000  -0.00000  -0.00155
  59        4PX         0.08139  -0.04199   0.00000  -0.00000  -0.00275
  60        4PY        -0.00000   0.00000   0.08161  -0.00000  -0.00064
  61        4PZ        -0.00000  -0.00000  -0.00000   0.08161  -0.00111
                          11        12        13        14        15
  11        2S          2.38457
  12        2PX         0.00724   2.04859
  13        2PY         0.01023  -0.00558   2.04464
  14        2PZ         0.01772  -0.00967  -0.01368   2.02884
  15        3S         -0.26550  -0.00973  -0.01375  -0.02382   0.71877
  16        3PX        -0.01668  -0.17020   0.01243   0.02153   0.01069
  17        3PY        -0.02360   0.01243  -0.16141   0.03045   0.01512
  18        3PZ        -0.04087   0.02153   0.03045  -0.12626   0.02619
  19        4S         -0.70333  -0.01681  -0.02378  -0.04118   0.62235
  20        4PX         0.01079  -0.32975   0.01389   0.02405   0.00794
  21        4PY         0.01525   0.01389  -0.31993   0.03402   0.01122
  22        4PZ         0.02642   0.02405   0.03402  -0.28065   0.01944
  23 3   Cl 1S          0.00035   0.00037  -0.00168  -0.00037   0.00105
  24        2S         -0.00313  -0.00218   0.01133   0.00298   0.00053
  25        2PX        -0.00218  -0.00259  -0.00016   0.00236   0.00301
  26        2PY        -0.00825  -0.00197   0.01432   0.00742   0.00086
  27        2PZ        -0.00833   0.00132   0.01037   0.00405   0.00541
  28        3S          0.00053   0.00301  -0.00511   0.00196  -0.00158
  29        3PX         0.00513   0.00563  -0.00001  -0.00471  -0.00514
  30        3PY         0.01678   0.00445  -0.03088  -0.01548  -0.01134
  31        3PZ         0.01806  -0.00214  -0.02275  -0.00812  -0.01495
  32        4S          0.00781   0.00536  -0.05766  -0.02454  -0.01691
  33        4PX         0.00141   0.00916   0.00585  -0.00803  -0.00148
  34        4PY         0.01686   0.00745  -0.05942  -0.03146  -0.01614
  35        4PZ         0.01204  -0.00710  -0.03407  -0.01513  -0.01174
  36 4   Cl 1S          0.00035   0.00037   0.00052  -0.00164   0.00105
  37        2S         -0.00313  -0.00218  -0.00309   0.01130   0.00053
  38        2PX        -0.00218  -0.00259   0.00213   0.00104   0.00301
  39        2PY        -0.00309   0.00213  -0.00109   0.00148   0.00425
  40        2PZ        -0.01130  -0.00104  -0.00148   0.01945   0.00345
  41        3S          0.00053   0.00301   0.00425  -0.00345  -0.00158
  42        3PX         0.00513   0.00563  -0.00408  -0.00236  -0.00514
  43        3PY         0.00725  -0.00408   0.00275  -0.00334  -0.00727
  44        3PZ         0.02356   0.00278   0.00394  -0.04175  -0.01730
  45        4S          0.00781   0.00536   0.00758  -0.06221  -0.01691
  46        4PX         0.00141   0.00916  -0.00988   0.00105  -0.00148
  47        4PY         0.00200  -0.00988   0.00217   0.00149  -0.00209
  48        4PZ         0.02062   0.00290   0.00410  -0.07672  -0.01985
  49 5   Cl 1S          0.00035  -0.00171  -0.00022  -0.00037   0.00105
  50        2S         -0.00313   0.01141   0.00172   0.00298   0.00053
  51        2PX        -0.00705   0.01311   0.00358   0.00621  -0.00019
  52        2PY        -0.00481   0.00539  -0.00138   0.00470   0.00312
  53        2PZ        -0.00833   0.00934   0.00470   0.00405   0.00541
  54        3S          0.00053  -0.00582   0.00113   0.00196  -0.00158
[...]
 Atom     2 has atomic number 17 and mass  34.96885
 Atom     3 has atomic number 17 and mass  34.96885
 Atom     4 has atomic number 17 and mass  34.96885
 Atom     5 has atomic number 17 and mass  34.96885
 Molecular mass:   150.88472 amu.
 Principal axes and moments of inertia in atomic units:
                           1         2         3
     Eigenvalues --  1215.973091215.973151215.97317
           X            0.99992   0.00000   0.01279
           Y            0.00016   0.99992  -0.01253
           Z           -0.01279   0.01253   0.99984
 This molecule is an asymmetric top.
 Rotational symmetry number  1.
 Warning -- assumption of classical behavior for rotation
           may cause significant error
 Rotational temperatures (Kelvin)      0.07123     0.07123     0.07123
 Rotational constants (GHZ):           1.48420     1.48419     1.48419
 Zero-point vibrational energy      21091.5 (Joules/Mol)
                                    5.04098 (Kcal/Mol)
 Warning -- explicit consideration of   6 degrees of freedom as
           vibrations may cause significant error
 Vibrational temperatures:    277.36   277.36   390.84   390.84   390.84
          (Kelvin)            551.94   931.42   931.42   931.42
 
 Zero-point correction=                           0.008033 (Hartree/Particle)
 Thermal correction to Energy=                    0.014113
 Thermal correction to Enthalpy=                  0.015058
 Thermal correction to Gibbs Free Energy=        -0.023537
 Sum of electronic and zero-point Energies=          -1853.964701
 Sum of electronic and thermal Energies=             -1853.958621
 Sum of electronic and thermal Enthalpies=           -1853.957677
 Sum of electronic and thermal Free Energies=        -1853.996272
 
                     E (Thermal)             CV                S
                      KCal/Mol        Cal/Mol-Kelvin    Cal/Mol-Kelvin
 Total                    8.856             19.143             81.229
 Electronic               0.000              0.000              0.000
 Translational            0.889              2.981             40.944
 Rotational               0.889              2.981             28.976
 Vibrational              7.079             13.181             11.309
 Vibration     1          0.635              1.850              2.201
 Vibration     2          0.635              1.850              2.201
 Vibration     3          0.675              1.726              1.586
 Vibration     4          0.675              1.726              1.586
 Vibration     5          0.675              1.726              1.586
 Vibration     6          0.753              1.505              1.025
                       Q            Log10(Q)             Ln(Q)
 Total Bot       0.670446D+11         10.826364         24.928624
 Total V=0       0.332223D+15         14.521429         33.436826
 Vib (Bot)       0.191739D-02         -2.717290         -6.256791
 Vib (Bot)    1  0.103715D+01          0.015842          0.036478
 Vib (Bot)    2  0.103715D+01          0.015842          0.036477
 Vib (Bot)    3  0.710841D+00         -0.148228         -0.341307
 Vib (Bot)    4  0.710841D+00         -0.148228         -0.341307
 Vib (Bot)    5  0.710841D+00         -0.148228         -0.341307
 Vib (Bot)    6  0.470122D+00         -0.327790         -0.754764
 Vib (V=0)       0.950114D+01          0.977776          2.251412
 Vib (V=0)    1  0.165138D+01          0.217848          0.501613
 Vib (V=0)    2  0.165138D+01          0.217848          0.501613
 Vib (V=0)    3  0.136908D+01          0.136428          0.314137
 Vib (V=0)    4  0.136908D+01          0.136428          0.314137
 Vib (V=0)    5  0.136908D+01          0.136428          0.314137
 Vib (V=0)    6  0.118630D+01          0.074196          0.170843
 Electronic      0.100000D+01          0.000000          0.000000
 Translational   0.728487D+08          7.862422         18.103895
 Rotational      0.479989D+06          5.681232         13.081519
 ***** Axes restored to original set *****
 -------------------------------------------------------------------
 Center     Atomic                   Forces (Hartrees/Bohr)
 Number     Number              X              Y              Z
 -------------------------------------------------------------------
      1        5           0.000000002   -0.000000008   -0.000000000
      2       17           0.000068749    0.000097217    0.000168391
      3       17           0.000068732   -0.000194421   -0.000000000
      4       17           0.000068749    0.000097217   -0.000168390
      5       17          -0.000206233   -0.000000005    0.000000000
 -------------------------------------------------------------------
 Cartesian Forces:  Max     0.000206233 RMS     0.000106496
 FormGI is forming the generalized inverse of G from B-inverse, IUseBI=4.

 GradGradGradGradGradGradGradGradGradGradGradGradGradGradGradGradGradGrad
 Berny optimization.
 Internal  Forces:  Max     0.000206236 RMS     0.000110234
 Search for a local minimum.
 Step number   1 out of a maximum of    2
 All quantities printed in internal units (Hartrees-Bohrs-Radians)
 Second derivative matrix not updated -- analytic derivatives used.
 The second derivative matrix:
                          R1        R2        R3        R4        A1
           R1           0.13425
           R2           0.02017   0.13425
           R3           0.02017   0.02017   0.13425
           R4           0.02017   0.02017   0.02017   0.13425
           A1           0.00565   0.00565  -0.00355  -0.00775   0.03364
           A2           0.00885  -0.00228   0.00985  -0.01642  -0.01226
           A3           0.01730  -0.01388  -0.01537   0.01195  -0.02129
           A4          -0.00228   0.00885   0.00985  -0.01642  -0.01226
           A5          -0.01388   0.01730  -0.01537   0.01195  -0.02129
           A6          -0.01563  -0.01563   0.01458   0.01668   0.03347
           D1           0.01094   0.01094   0.00772  -0.02960   0.02618
           D2          -0.00901  -0.00901   0.02316  -0.00515  -0.01513
           D3           0.01186  -0.02087   0.01158  -0.00257  -0.00756
           D4           0.02087  -0.01186  -0.01158   0.00257   0.00756
                          A2        A3        A4        A5        A6
           A2           0.06613
           A3          -0.03864   0.12908
           A4           0.00124   0.03276   0.06613
           A5           0.03276  -0.05809  -0.03864   0.12908
           A6          -0.04924  -0.04383  -0.04924  -0.04383   0.15265
           D1           0.02624  -0.02968   0.02624  -0.02968  -0.01931
           D2           0.01862  -0.01740   0.01862  -0.01740   0.01268
           D3           0.02719   0.00489  -0.00857  -0.02229   0.00634
           D4           0.00857   0.02229  -0.02719  -0.00489  -0.00634
                          D1        D2        D3        D4
           D1           0.06420
           D2           0.00428   0.03983
           D3           0.00214   0.01992   0.04017
           D4          -0.00214  -0.01992   0.02026   0.04017
 ITU=  0
     Eigenvalues ---    0.05674   0.06123   0.07454   0.12963   0.13803
     Eigenvalues ---    0.18398   0.19475   0.22731   0.23189
 Angle between quadratic step and forces=   0.00 degrees.
 Linear search not attempted -- first point.
 Iteration  1 RMS(Cart)=  0.00056604 RMS(Int)=  0.00000000
 Iteration  2 RMS(Cart)=  0.00000000 RMS(Int)=  0.00000000
 Variable       Old X    -DE/DX   Delta X   Delta X   Delta X     New X
                                 (Linear)    (Quad)   (Total)
    R1        3.61108   0.00021   0.00000   0.00106   0.00106   3.61214
    R2        3.61108   0.00021   0.00000   0.00106   0.00106   3.61214
    R3        3.61108   0.00021   0.00000   0.00106   0.00106   3.61214
    R4        3.61108   0.00021   0.00000   0.00106   0.00106   3.61214
    A1        1.91063   0.00000   0.00000  -0.00000  -0.00000   1.91063
    A2        1.91063  -0.00000   0.00000  -0.00000  -0.00000   1.91063
    A3        1.91063   0.00000   0.00000   0.00000   0.00000   1.91063
    A4        1.91063  -0.00000   0.00000  -0.00000  -0.00000   1.91063
    A5        1.91063  -0.00000   0.00000  -0.00000  -0.00000   1.91063
    A6        1.91063   0.00000   0.00000   0.00000   0.00000   1.91063
    D1        2.09440  -0.00000   0.00000  -0.00000  -0.00000   2.09440
    D2       -2.09440   0.00000   0.00000   0.00000   0.00000  -2.09440
    D3        2.09440   0.00000   0.00000   0.00000   0.00000   2.09440
    D4       -2.09440   0.00000   0.00000   0.00000   0.00000  -2.09440
         Item               Value     Threshold  Converged?
 Maximum Force            0.000206     0.000450     YES
 RMS     Force            0.000110     0.000300     YES
 Maximum Displacement     0.001059     0.001800     YES
 RMS     Displacement     0.000566     0.001200     YES
 Predicted change in Energy=-4.367783D-07
 Optimization completed.
    -- Stationary point found.
                           ----------------------------
                           !   Optimized Parameters   !
                           ! (Angstroms and Degrees)  !
 --------------------------                            --------------------------
 ! Name  Definition              Value          Derivative Info.                !
 --------------------------------------------------------------------------------
 ! R1    R(1,2)                  1.9109         -DE/DX =    0.0002              !
 ! R2    R(1,3)                  1.9109         -DE/DX =    0.0002              !
 ! R3    R(1,4)                  1.9109         -DE/DX =    0.0002              !
 ! R4    R(1,5)                  1.9109         -DE/DX =    0.0002              !
 ! A1    A(2,1,3)              109.4712         -DE/DX =    0.0                 !
 ! A2    A(2,1,4)              109.4712         -DE/DX =    0.0                 !
 ! A3    A(2,1,5)              109.4712         -DE/DX =    0.0                 !
 ! A4    A(3,1,4)              109.4712         -DE/DX =    0.0                 !
 ! A5    A(3,1,5)              109.4712         -DE/DX =    0.0                 !
 ! A6    A(4,1,5)              109.4712         -DE/DX =    0.0                 !
 ! D1    D(2,1,4,3)            120.0            -DE/DX =    0.0                 !
 ! D2    D(2,1,5,3)           -120.0            -DE/DX =    0.0                 !
 ! D3    D(2,1,5,4)            120.0            -DE/DX =    0.0                 !
 ! D4    D(3,1,5,4)           -120.0            -DE/DX =    0.0                 !
 --------------------------------------------------------------------------------
 GradGradGradGradGradGradGradGradGradGradGradGradGradGradGradGradGradGrad


 ----------------------------------------------------------------------

 Electric dipole moment (input orientation):
 (Debye = 10**-18 statcoulomb cm , SI units = C m)
                  (au)            (Debye)         (10**-30 SI)
   Tot        0.000000D+00      0.000000D+00      0.000000D+00
   x          0.000000D+00      0.000000D+00      0.000000D+00
   y          0.000000D+00      0.000000D+00      0.000000D+00
   z          0.000000D+00      0.000000D+00      0.000000D+00

 Dipole polarizability, Alpha (input orientation).
 (esu units = cm**3 , SI units = C**2 m**2 J**-1)
 Alpha(0;0):
               (au)            (10**-24 esu)      (10**-40 SI)
   iso        0.420214D+02      0.622693D+01      0.692839D+01
   aniso      0.000000D+00      0.000000D+00      0.000000D+00
   xx         0.420214D+02      0.622693D+01      0.692839D+01
   yx         0.000000D+00      0.000000D+00      0.000000D+00
   yy         0.420214D+02      0.622693D+01      0.692839D+01
   zx         0.000000D+00      0.000000D+00      0.000000D+00
   zy         0.000000D+00      0.000000D+00      0.000000D+00
   zz         0.420214D+02      0.622693D+01      0.692839D+01

 First dipole hyperpolarizability, Beta (input orientation).
 ||, _|_  parallel and perpendicular components, (z) with respect to z axis,
 vector components x,y,z.  Values do not include the 1/n! factor of 1/2.
 (esu units = statvolt**-1 cm**4 , SI units = C**3 m**3 J**-2)
 Beta(0;0,0):
               (au)            (10**-30 esu)      (10**-50 SI)
   || (z)     0.000000D+00      0.000000D+00      0.000000D+00
   _|_(z)     0.000000D+00      0.000000D+00      0.000000D+00
   x          0.000000D+00      0.000000D+00      0.000000D+00
   y          0.201780D-04      0.174322D-06      0.646979D-07
   z          0.000000D+00      0.000000D+00      0.000000D+00
   ||         0.000000D+00      0.000000D+00      0.000000D+00
   xxx        0.592437D+02      0.511819D+00      0.189957D+00
   xxy       -0.145771D-02     -0.125935D-04     -0.467393D-05
   yxy       -0.296213D+02     -0.255905D+00     -0.949767D-01
   yyy        0.418927D+02      0.361920D+00      0.134323D+00
   xxz        0.000000D+00      0.000000D+00      0.000000D+00
   yxz        0.000000D+00      0.000000D+00      0.000000D+00
   yyz        0.000000D+00      0.000000D+00      0.000000D+00
   zxz       -0.296223D+02     -0.255914D+00     -0.949800D-01
   zyz       -0.418912D+02     -0.361908D+00     -0.134318D+00
   zzz        0.000000D+00      0.000000D+00      0.000000D+00

 ----------------------------------------------------------------------

 Dipole orientation:
     5          0.58245044          0.14536773          0.99553897
    17          2.75622984         -2.36374851          2.41642125
    17          0.98957785          0.19877141         -2.59211824
    17          1.43266365          3.38229577          2.35175506
    17         -2.84866959         -0.63584774          1.80609779

 Electric dipole moment (dipole orientation):
 (Debye = 10**-18 statcoulomb cm , SI units = C m)
                  (au)            (Debye)         (10**-30 SI)
   Tot        0.000000D+00      0.000000D+00      0.000000D+00
   x          0.000000D+00      0.000000D+00      0.000000D+00
   y          0.000000D+00      0.000000D+00      0.000000D+00
   z          0.000000D+00      0.000000D+00      0.000000D+00

 Dipole polarizability, Alpha (dipole orientation).
 (esu units = cm**3 , SI units = C**2 m**2 J**-1)
 Alpha(0;0):
               (au)            (10**-24 esu)      (10**-40 SI)
   iso        0.420214D+02      0.622693D+01      0.692839D+01
   aniso      0.000000D+00      0.000000D+00      0.000000D+00
   xx         0.420214D+02      0.622693D+01      0.692839D+01
   yx         0.000000D+00      0.000000D+00      0.000000D+00
   yy         0.420214D+02      0.622693D+01      0.692839D+01
   zx         0.000000D+00      0.000000D+00      0.000000D+00
   zy         0.000000D+00      0.000000D+00      0.000000D+00
   zz         0.420214D+02      0.622693D+01      0.692839D+01

 First dipole hyperpolarizability, Beta (dipole orientation).
 ||, _|_  parallel and perpendicular components, (z) with respect to z axis,
 vector components x,y,z.  Values do not include the 1/n! factor of 1/2.
 (esu units = statvolt**-1 cm**4 , SI units = C**3 m**3 J**-2)
 Beta(0;0,0):
               (au)            (10**-30 esu)      (10**-50 SI)
   || (z)     0.000000D+00      0.000000D+00      0.000000D+00
   _|_(z)     0.000000D+00      0.000000D+00      0.000000D+00
   x          0.000000D+00      0.000000D+00      0.000000D+00
   y          0.000000D+00      0.000000D+00      0.000000D+00
   z          0.206826D-04      0.178681D-06      0.663158D-07
   ||         0.000000D+00      0.000000D+00      0.000000D+00
   xxx        0.416688D+02      0.359986D+00      0.133605D+00
   xxy        0.264747D+02      0.228721D+00      0.848876D-01
   yxy       -0.290172D+02     -0.250686D+00     -0.930395D-01
   yyy       -0.249713D+02     -0.215733D+00     -0.800670D-01
   xxz       -0.235556D+02     -0.203502D+00     -0.755278D-01
   yxz        0.272156D+01      0.235122D-01      0.872631D-02
   yyz       -0.334602D+02     -0.289070D+00     -0.107286D+00
   zxz       -0.126516D+02     -0.109300D+00     -0.405657D-01
   zyz       -0.150344D+01     -0.129886D-01     -0.482058D-02
   zzz        0.570158D+02      0.492572D+00      0.182813D+00

 ----------------------------------------------------------------------
 1\1\GINC-IISERK51\Freq\RHF\3-21G\B1Cl4(1-)\GAUSSIAN\16-Jun-2025\0\\#N 
 Geom=AllCheck Guess=TCheck SCRF=Check GenChk RHF/3-21G Freq\\BCl4- opt
 \\-1,1\B,0.1912568659,0.5846992659,0.0000000002\Cl,0.8282347304,1.4854
 98544,1.560243674\Cl,0.8282015807,-1.2169228463,0.0000000021\Cl,0.8282
 347293,1.4854985469,-1.5602436748\Cl,-1.7196435769,0.5847228189,-0.000
 0000004\\Version=EM64L-G16RevB.01\State=1-A\HF=-1853.9727346\RMSD=1.08
 5e-09\RMSF=1.065e-04\ZeroPoint=0.0080333\Thermal=0.0141133\Dipole=0.,0
 .0000001,0.\DipoleDeriv=1.9226891,0.,0.,0.,1.9226892,0.,0.,0.,1.922689
 1,-0.5671333,-0.1156425,-0.2003004,-0.1156425,-0.6488986,-0.2832602,-0
 .2003004,-0.2832602,-0.975985,-0.5671248,0.231276,0.,0.231276,-1.13953
 25,0.,0.,0.,-0.4853596,-0.5671333,-0.1156425,0.2003004,-0.1156425,-0.6
 488986,0.2832602,0.2003004,0.2832602,-0.975985,-1.2212976,0.0000091,0.
 ,0.0000091,-0.4853596,0.,0.,0.,-0.4853596\Polar=42.0214004,-0.000002,4
 2.0214024,0.,0.,42.0214001\PolarDeriv=1.132946,-0.0000278,-0.5664633,0
 .,0.,-0.5664827,-0.000028,-0.5664633,0.801135,0.,0.,-0.8011068,0.,0.,0
 .,-0.5664828,-0.8011068,0.,4.9437641,3.1970752,0.1122432,5.537564,0.42
 43015,0.602185,0.3048797,2.1573875,6.8452084,0.4243015,5.8375669,0.851
 5961,0.5280908,0.4243014,0.8280939,2.6473294,3.7437917,12.503259,4.943
 5176,-6.3942312,0.8471185,0.,0.,-0.1327379,-0.6097645,2.8921564,-14.81
 11,0.,0.,-0.5827135,0.,0.,0.,1.9123,-6.3671802,0.,4.9437641,3.1970752,
 0.1122432,-5.537564,-0.4243015,0.602185,0.3048797,2.1573875,6.8452084,
 -0.4243016,-5.8375669,0.8515961,-0.5280908,-0.4243014,-0.8280939,2.647
 3294,3.7437917,-12.503259,-15.9639917,0.0001086,-0.5051417,0.,0.,-0.50
 51494,0.0000331,-6.6404681,0.3195482,0.,0.,-0.3193718,0.,0.,0.,-6.6404
 761,-0.3192963,0.\HyperPolar=59.2436704,-0.0014577,-29.6213246,41.8927
 017,0.,0.,0.,-29.6223473,-41.8912372,0.\Quadrupole=0.0000001,-0.000000
 4,0.0000003,0.0000004,0.,0.\PG=C01 [X(B1Cl4)]\NImag=0\\0.15630646,0.00
 000002,0.15630643,0.,0.,0.15630648,-0.02744883,-0.00822230,-0.01424157
 ,0.03972401,-0.00822230,-0.03326242,-0.02014010,0.01670944,0.05153844,
 -0.01424157,-0.02014010,-0.05651861,0.02894186,0.04092890,0.09879989,-
 0.02744822,0.01644395,0.,0.00391002,-0.00213991,-0.00031717,0.03972277
 ,0.01644395,-0.06814696,0.,0.00134399,-0.02337681,-0.01323412,-0.03341
 756,0.12243118,0.,0.,-0.02163463,0.00169419,-0.01892334,-0.00481070,0.
 ,0.,0.02790834,-0.02744883,-0.00822230,0.01424157,0.00391005,0.0007952
 6,-0.00201147,0.00391002,0.00134399,-0.00169419,0.03972401,-0.00822230
 ,-0.03326242,0.02014010,0.00079526,0.00447233,-0.00284457,-0.00213991,
 -0.02337681,0.01892334,0.01670944,0.05153844,0.01424157,0.02014010,-0.
 05651860,0.00201147,0.00284457,-0.03265988,0.00031717,0.01323412,-0.00
 481070,-0.02894186,-0.04092890,0.09879989,-0.07396059,0.00000064,0.,-0
 .02009525,-0.00714248,-0.01237164,-0.02009458,0.01428563,0.,-0.0200952
 5,-0.00714248,0.01237164,0.13424566,0.00000064,-0.02163463,0.,-0.01062
 639,0.00062845,-0.00471011,0.02125344,-0.00753061,0.,-0.01062639,0.000
 62845,0.00471011,-0.00000130,0.02790834,0.,0.,-0.02163463,-0.01840595,
 -0.00471003,-0.00481071,0.,0.,0.00334770,0.01840595,0.00471003,-0.0048
 1071,0.,0.,0.02790835\\0.,0.,0.,-0.00006875,-0.00009722,-0.00016839,-0
 .00006873,0.00019442,0.,-0.00006875,-0.00009722,0.00016839,0.00020623,
 0.,0.\\\@


 THEORY:  SUPPOSITION WHICH HAS SCIENTIFIC BASIS,
          BUT NOT EXPERIMENTALLY PROVEN.
 FACT:    A THEORY WHICH HAS BEEN PROVEN BY ENOUGH 
          MONEY TO PAY FOR THE EXPERIMENTS.

                          --  THE WIZARD OF ID
 Job cpu time:       0 days  0 hours  0 minutes  1.5 seconds.
 Elapsed time:       0 days  0 hours  0 minutes  1.4 seconds.
 File lengths (MBytes):  RWF=      7 Int=      0 D2E=      0 Chk=      1 Scr=      1
 Normal termination of Gaussian 16 at Mon Jun 16 21:17:22 2025.
