 Entering Gaussian System, Link 0=g16
 Input=/home/gaussian/Documents/Summer_Internship/Acid_Base_adduct/Acid/BCl3/MX4-/BCl4_ion_sp.com
 Output=/home/gaussian/Documents/Summer_Internship/Acid_Base_adduct/Acid/BCl3/MX4-/BCl4_ion_sp.log
 Initial command:
 /usr/local/g16/l1.exe "/home/gaussian/tmp/Gau-78652.inp" -scrdir="/home/gaussian/tmp/"
 Entering Link 1 = /usr/local/g16/l1.exe PID=     78655.
  
 Copyright (c) 1988-2017, Gaussian, Inc.  All Rights Reserved.
  
 This is part of the Gaussian(R) 16 program.  It is based on
 the Gaussian(R) 09 system (copyright 2009, Gaussian, Inc.),
 the Gaussian(R) 03 system (copyright 2003, Gaussian, Inc.),
 the Gaussian(R) 98 system (copyright 1998, Gaussian, Inc.),
 the Gaussian(R) 94 system (copyright 1995, Gaussian, Inc.),
 the Gaussian 92(TM) system (copyright 1992, Gaussian, Inc.),
 the Gaussian 90(TM) system (copyright 1990, Gaussian, Inc.),
 the Gaussian 88(TM) system (copyright 1988, Gaussian, Inc.),
 the Gaussian 86(TM) system (copyright 1986, Carnegie Mellon
 University), and the Gaussian 82(TM) system (copyright 1983,
 Carnegie Mellon University). Gaussian is a federally registered
 trademark of Gaussian, Inc.
  
 This software contains proprietary and confidential information,
 including trade secrets, belonging to Gaussian, Inc.
  
 This software is provided under written license and may be
 used, copied, transmitted, or stored only in accord with that
 written license.
  
 The following legend is applicable only to US Government
 contracts under FAR:
  
                    RESTRICTED RIGHTS LEGEND
  
 Use, reproduction and disclosure by the US Government is
 subject to restrictions as set forth in subparagraphs (a)
 and (c) of the Commercial Computer Software - Restricted
 Rights clause in FAR 52.227-19.
  
 Gaussian, Inc.
 340 Quinnipiac St., Bldg. 40, Wallingford CT 06492
  
  
 ---------------------------------------------------------------
 Warning -- This program may not be used in any manner that
 competes with the business of Gaussian, Inc. or will provide
 assistance to any competitor of Gaussian, Inc.  The licensee
 of this program is prohibited from giving any competitor of
 Gaussian, Inc. access to this program.  By using this program,
 the user acknowledges that Gaussian, Inc. is engaged in the
 business of creating and licensing software in the field of
 computational chemistry and represents and warrants to the
 licensee that it is not a competitor of Gaussian, Inc. and that
 it will not use this program in any manner prohibited above.
 ---------------------------------------------------------------
  

 Cite this work as:
 Gaussian 16, Revision B.01,
 M. J. Frisch, G. W. Trucks, H. B. Schlegel, G. E. Scuseria, 
 M. A. Robb, J. R. Cheeseman, G. Scalmani, V. Barone, 
 G. A. Petersson, H. Nakatsuji, X. Li, M. Caricato, A. V. Marenich, 
 J. Bloino, B. G. Janesko, R. Gomperts, B. Mennucci, H. P. Hratchian, 
 J. V. Ortiz, A. F. Izmaylov, J. L. Sonnenberg, D. Williams-Young, 
 F. Ding, F. Lipparini, F. Egidi, J. Goings, B. Peng, A. Petrone, 
 T. Henderson, D. Ranasinghe, V. G. Zakrzewski, J. Gao, N. Rega, 
 G. Zheng, W. Liang, M. Hada, M. Ehara, K. Toyota, R. Fukuda, 
 J. Hasegawa, M. Ishida, T. Nakajima, Y. Honda, O. Kitao, H. Nakai, 
 T. Vreven, K. Throssell, J. A. Montgomery, Jr., J. E. Peralta, 
 F. Ogliaro, M. J. Bearpark, J. J. Heyd, E. N. Brothers, K. N. Kudin, 
 V. N. Staroverov, T. A. Keith, R. Kobayashi, J. Normand, 
 K. Raghavachari, A. P. Rendell, J. C. Burant, S. S. Iyengar, 
 J. Tomasi, M. Cossi, J. M. Millam, M. Klene, C. Adamo, R. Cammi, 
 J. W. Ochterski, R. L. Martin, K. Morokuma, O. Farkas, 
 J. B. Foresman, and D. J. Fox, Gaussian, Inc., Wallingford CT, 2016.
 
 ******************************************
 Gaussian 16:  EM64L-G16RevB.01 20-Dec-2017
                16-Jun-2025 
 ******************************************
 %chk=BCl4_ion_sp.chk
 -------------------------------------
 # hf/3-21g pop=full geom=connectivity
 -------------------------------------
 1/38=1,57=2,172=1/1;
 2/12=2,17=6,18=5,40=1/2;
 3/5=5,11=9,25=1,30=1/1,2,3;
 4//1;
 5/5=2,38=5/2;
 6/7=3,28=1/1;
 99/5=1,9=1/99;
 --------
 BCl4- sp
 --------
 Symbolic Z-matrix:
 Charge = -1 Multiplicity = 1
 B                     0.        0.        0. 
 Cl                   -0.3847    1.56782  -1.02249 
 Cl                    1.86086  -0.03746   0.43284 
 Cl                   -0.44788  -1.55203  -1.02086 
 Cl                   -1.02827   0.02166   1.61051 
 
                          Input orientation:                          
 ---------------------------------------------------------------------
 Center     Atomic      Atomic             Coordinates (Angstroms)
 Number     Number       Type             X           Y           Z
 ---------------------------------------------------------------------
      1          5           0        0.000000    0.000000    0.000000
      2         17           0       -0.384703    1.567820   -1.022489
      3         17           0        1.860856   -0.037457    0.432844
      4         17           0       -0.447880   -1.552027   -1.020860
      5         17           0       -1.028273    0.021663    1.610505
 ---------------------------------------------------------------------
                    Distance matrix (angstroms):
                    1          2          3          4          5
     1  B    0.000000
     2  Cl   1.910900   0.000000
     3  Cl   1.910901   3.120488   0.000000
     4  Cl   1.910900   3.120487   3.120487   0.000000
     5  Cl   1.910901   3.120487   3.120488   3.120487   0.000000
 Fill:  no match for NOp=  2 IAt=    2 RMin= 2.95D+00
 Fill:  no match for NOp=  2 IAt=    3 RMin= 2.95D+00
 Fill:  no match for NOp=  2 IAt=    4 RMin= 2.95D+00
 Fill:  no match for NOp=  2 IAt=    5 RMin= 2.95D+00
 Error permuting atoms in Fill, NOp=  2 RMinMx= 2.95D+00 LPerm:
   1   0   0   0   0
 Symmetry turned off:
 Internal error in symmetry package.
 Rotational constants (GHZ):           1.4841954           1.4841949           1.4841946
 Standard basis: 3-21G (6D, 7F)
    61 basis functions,   123 primitive gaussians,    61 cartesian basis functions
    37 alpha electrons       37 beta electrons
       nuclear repulsion energy       388.2091737586 Hartrees.
 NAtoms=    5 NActive=    5 NUniq=    5 SFac= 1.00D+00 NAtFMM=   60 NAOKFM=F Big=F
 Integral buffers will be    131072 words long.
 Raffenetti 1 integral format.
 Two-electron integral symmetry is turned off.
 One-electron integrals computed using PRISM.
 NBasis=    61 RedAO= T EigKep=  1.04D-02  NBF=    61
 NBsUse=    61 1.00D-06 EigRej= -1.00D+00 NBFU=    61
 ExpMin= 1.24D-01 ExpMax= 1.38D+03 ExpMxC= 1.38D+03 IAcc=3 IRadAn=         5 AccDes= 0.00D+00
 Harris functional with IExCor=  205 and IRadAn=       5 diagonalized for initial guess.
 HarFok:  IExCor=  205 AccDes= 0.00D+00 IRadAn=         5 IDoV= 1 UseB2=F ITyADJ=14
 ICtDFT=  3500011 ScaDFX=  1.000000  1.000000  1.000000  1.000000
 FoFCou: FMM=F IPFlag=           0 FMFlag=      100000 FMFlg1=           0
         NFxFlg=           0 DoJE=T BraDBF=F KetDBF=T FulRan=T
         wScrn=  0.000000 ICntrl=       500 IOpCl=  0 I1Cent=   200000004 NGrid=           0
         NMat0=    1 NMatS0=      1 NMatT0=    0 NMatD0=    1 NMtDS0=    0 NMtDT0=    0
 Symmetry not used in FoFCou.
 Keep R1 ints in memory in canonical form, NReq=2602179.
 Requested convergence on RMS density matrix=1.00D-08 within 128 cycles.
 Requested convergence on MAX density matrix=1.00D-06.
 Requested convergence on             energy=1.00D-06.
 No special actions if energy rises.
 SCF Done:  E(RHF) =  -1853.97273457     A.U. after    9 cycles
            NFock=  9  Conv=0.64D-08     -V/T= 2.0007

 **********************************************************************

            Population analysis using the SCF Density.

 **********************************************************************

 Alpha  occ. eigenvalues -- -103.92854-103.92854-103.92854-103.92817 -10.32325
 Alpha  occ. eigenvalues --  -10.32325 -10.32325 -10.32206  -7.78652  -7.78652
 Alpha  occ. eigenvalues --   -7.78652  -7.78627  -7.78309  -7.78309  -7.78309
 Alpha  occ. eigenvalues --   -7.78286  -7.78286  -7.78286  -7.78279  -7.78279
 Alpha  occ. eigenvalues --   -7.58446  -0.98100  -0.91122  -0.91122  -0.91122
 Alpha  occ. eigenvalues --   -0.51652  -0.39943  -0.39943  -0.39943  -0.31960
 Alpha  occ. eigenvalues --   -0.31960  -0.28424  -0.28424  -0.28424  -0.27007
 Alpha  occ. eigenvalues --   -0.27007  -0.27007
 Alpha virt. eigenvalues --    0.35241   0.38777   0.38777   0.38777   0.80661
 Alpha virt. eigenvalues --    0.81457   0.81457   0.81457   0.92893   0.92893
 Alpha virt. eigenvalues --    0.92893   0.93005   0.94076   0.94076   0.97667
 Alpha virt. eigenvalues --    0.97667   0.97667   1.07851   1.07851   1.07851
 Alpha virt. eigenvalues --    1.22610   1.22610   1.22610   1.68054
     Molecular Orbital Coefficients:
                           1         2         3         4         5
                           O         O         O         O         O
     Eigenvalues --  -103.92854-103.92854-103.92854-103.92817 -10.32325
   1 1   B  1S          0.00000   0.00000  -0.00000   0.00023  -0.00000
   2        2S          0.00000   0.00000  -0.00000   0.00219  -0.00000
   3        2PX        -0.00001  -0.00002   0.00007   0.00000   0.00005
   4        2PY         0.00006   0.00004   0.00002  -0.00000  -0.00049
   5        2PZ        -0.00004   0.00006   0.00001   0.00000   0.00027
   6        3S         -0.00000  -0.00000   0.00000  -0.01076   0.00000
   7        3PX         0.00053   0.00110  -0.00426  -0.00000  -0.00242
   8        3PY        -0.00367  -0.00225  -0.00104   0.00000   0.02262
   9        3PZ         0.00242  -0.00365  -0.00064  -0.00000  -0.01247
  10 2   Cl 1S          0.85094   0.02157  -0.06669   0.49290  -0.26264
  11        2S          0.04587   0.00116  -0.00359   0.02646   0.84380
  12        2PX         0.00004   0.00001  -0.00003   0.00001   0.00122
  13        2PY        -0.00018  -0.00002   0.00000  -0.00003  -0.00493
  14        2PZ         0.00012  -0.00002  -0.00001   0.00002   0.00323
  15        3S         -0.01693  -0.00043   0.00133  -0.00925   0.12478
  16        3PX        -0.00018  -0.00004   0.00015  -0.00002   0.00121
  17        3PY         0.00076   0.00009  -0.00002   0.00006  -0.00526
  18        3PZ        -0.00050   0.00010   0.00005  -0.00004   0.00337
  19        4S          0.01192   0.00030  -0.00093   0.00687  -0.06944
  20        4PX         0.00070  -0.00005   0.00021   0.00038  -0.00412
  21        4PY        -0.00276   0.00007   0.00030  -0.00153   0.01586
  22        4PZ         0.00180   0.00028  -0.00011   0.00100  -0.01051
  23 3   Cl 1S         -0.21964  -0.05481   0.82322   0.49298   0.05746
  24        2S         -0.01184  -0.00295   0.04438   0.02647  -0.18461
  25        2PX         0.00005   0.00002  -0.00021  -0.00004   0.00130
  26        2PY        -0.00003  -0.00002  -0.00000   0.00000   0.00007
  27        2PZ         0.00003  -0.00002  -0.00005  -0.00001   0.00025
  28        3S          0.00437   0.00109  -0.01638  -0.00925  -0.02730
  29        3PX        -0.00022  -0.00008   0.00088   0.00007   0.00127
  30        3PY         0.00012   0.00007   0.00002  -0.00000  -0.00062
  31        3PZ        -0.00012   0.00010   0.00019   0.00002   0.00061
  32        4S         -0.00308  -0.00077   0.01153   0.00687   0.01519
  33        4PX         0.00088   0.00016  -0.00316  -0.00182  -0.00437
  34        4PY         0.00022   0.00014   0.00014   0.00004  -0.00152
  35        4PZ         0.00006   0.00029  -0.00076  -0.00042  -0.00017
  36 4   Cl 1S         -0.30130  -0.67905  -0.42079   0.49296   0.11376
  37        2S         -0.01624  -0.03660  -0.02268   0.02647  -0.36549
  38        2PX        -0.00001  -0.00003  -0.00005   0.00001  -0.00063
  39        2PY        -0.00008  -0.00014  -0.00008   0.00003  -0.00206
  40        2PZ        -0.00002  -0.00011  -0.00005   0.00002  -0.00147
  41        3S          0.00600   0.01351   0.00837  -0.00925  -0.05405
  42        3PX         0.00005   0.00011   0.00023  -0.00002  -0.00051
  43        3PY         0.00034   0.00058   0.00035  -0.00006  -0.00260
  44        3PZ         0.00007   0.00045   0.00023  -0.00004  -0.00098
  45        4S         -0.00422  -0.00951  -0.00589   0.00687   0.03008
  46        4PX        -0.00034  -0.00075  -0.00015   0.00044   0.00234
  47        4PY        -0.00081  -0.00222  -0.00140   0.00152   0.00588
  48        4PZ        -0.00084  -0.00132  -0.00092   0.00100   0.00582
  49 5   Cl 1S         -0.32990   0.71230  -0.33578   0.49296   0.09140
  50        2S         -0.01778   0.03840  -0.01810   0.02647  -0.29366
  51        2PX        -0.00004   0.00009  -0.00007   0.00002  -0.00116
  52        2PY        -0.00002  -0.00002  -0.00001  -0.00000   0.00012
  53        2PZ         0.00008  -0.00016   0.00006  -0.00003   0.00175
  54        3S          0.00656  -0.01417   0.00668  -0.00925  -0.04343
  55        3PX         0.00015  -0.00039   0.00030  -0.00004  -0.00100
  56        3PY         0.00011   0.00008   0.00003   0.00000  -0.00058
  57        3PZ        -0.00033   0.00067  -0.00024   0.00006   0.00200
  58        4S         -0.00462   0.00998  -0.00470   0.00687   0.02417
  59        4PX        -0.00079   0.00157  -0.00050   0.00101   0.00416
  60        4PY         0.00025   0.00011   0.00008  -0.00002  -0.00170
  61        4PZ         0.00104  -0.00234   0.00125  -0.00158  -0.00536
                           6         7         8         9        10
                           O         O         O         O         O
     Eigenvalues --   -10.32325 -10.32325 -10.32206  -7.78652  -7.78652
   1 1   B  1S         -0.00000   0.00000  -0.00183   0.00000  -0.00000
   2        2S         -0.00000   0.00000  -0.01296  -0.00000   0.00000
   3        2PX        -0.00003  -0.00056  -0.00000  -0.00007  -0.00006
   4        2PY         0.00027  -0.00006   0.00000   0.00068   0.00037
   5        2PZ         0.00049   0.00000  -0.00000  -0.00037   0.00069
   6        3S          0.00000  -0.00000   0.06451  -0.00000   0.00000
   7        3PX         0.00131   0.02580   0.00000   0.00089   0.00069
   8        3PY        -0.01240   0.00275  -0.00000  -0.00826  -0.00446
   9        3PZ        -0.02275  -0.00002   0.00000   0.00451  -0.00830
  10 2   Cl 1S         -0.01770   0.02987  -0.15303  -0.00241   0.00017
  11        2S          0.05685  -0.09597   0.49196   0.00844  -0.00058
  12        2PX         0.00009  -0.00003   0.00078  -0.16685   0.01046
  13        2PY        -0.00039   0.00058  -0.00316   0.68601  -0.04047
  14        2PZ         0.00013  -0.00037   0.00206  -0.44626   0.04099
  15        3S          0.00841  -0.01419   0.06993  -0.00706   0.00048
  16        3PX         0.00004  -0.00081   0.00026  -0.01428   0.00086
  17        3PY         0.00001   0.00046  -0.00104   0.05895  -0.00322
  18        3PZ         0.00081  -0.00035   0.00068  -0.03831   0.00393
  19        4S         -0.00468   0.00790  -0.04111   0.01398  -0.00096
  20        4PX        -0.00038  -0.00135  -0.00232   0.00589  -0.00033
  21        4PY         0.00206  -0.00218   0.00944  -0.02446   0.00119
  22        4PZ         0.00086   0.00130  -0.00616   0.01587  -0.00186
  23 3   Cl 1S          0.03712  -0.25593  -0.15304   0.00053  -0.00029
  24        2S         -0.11927   0.82225   0.49199  -0.00185   0.00101
  25        2PX         0.00085  -0.00571  -0.00375  -0.17654   0.09513
  26        2PY        -0.00007   0.00013   0.00008   0.01428   0.00388
  27        2PZ         0.00010  -0.00135  -0.00087  -0.04667   0.03314
  28        3S         -0.01764   0.12160   0.06994   0.00155  -0.00085
  29        3PX         0.00075  -0.00607  -0.00124  -0.01511   0.00808
  30        3PY         0.00031   0.00004   0.00002   0.00165   0.00056
  31        3PZ         0.00078  -0.00125  -0.00029  -0.00422   0.00326
  32        4S          0.00982  -0.06767  -0.04111  -0.00306   0.00167
  33        4PX        -0.00303   0.01837   0.01121   0.00623  -0.00330
  34        4PY         0.00094  -0.00060  -0.00023  -0.00092  -0.00036
  35        4PZ         0.00094   0.00470   0.00261   0.00186  -0.00158
  36 4   Cl 1S         -0.22384   0.08449  -0.15303   0.00105   0.00203
  37        2S          0.71914  -0.27143   0.49197  -0.00368  -0.00712
  38        2PX         0.00123  -0.00035   0.00090   0.08298   0.16176
  39        2PY         0.00419  -0.00159   0.00313   0.30232   0.56944
  40        2PZ         0.00269  -0.00105   0.00206   0.18591   0.38154
  41        3S          0.10635  -0.04014   0.06994   0.00308   0.00596
  42        3PX         0.00110  -0.00111   0.00030   0.00703   0.01376
  43        3PY         0.00426  -0.00156   0.00103   0.02622   0.04881
  44        3PZ         0.00319  -0.00098   0.00068   0.01562   0.03298
  45        4S         -0.05919   0.02234  -0.04111  -0.00610  -0.01178
  46        4PX        -0.00435  -0.00024  -0.00270  -0.00286  -0.00563
  47        4PY        -0.01386   0.00537  -0.00935  -0.01101  -0.02018
  48        4PZ        -0.00808   0.00366  -0.00615  -0.00629  -0.01379
  49 5   Cl 1S          0.20441   0.14158  -0.15304   0.00083  -0.00191
  50        2S         -0.65672  -0.45487   0.49198  -0.00291   0.00669
  51        2PX        -0.00256  -0.00167   0.00207   0.15154  -0.35159
  52        2PY         0.00000   0.00005  -0.00004   0.00753   0.01320
  53        2PZ         0.00392   0.00278  -0.00325  -0.24504   0.56007
  54        3S         -0.09712  -0.06727   0.06994   0.00244  -0.00559
  55        3PX        -0.00241  -0.00233   0.00068   0.01288  -0.03003
  56        3PY         0.00038  -0.00004  -0.00001   0.00107   0.00136
  57        3PZ         0.00433   0.00258  -0.00107  -0.02114   0.04821
  58        4S          0.05405   0.03744  -0.04111  -0.00482   0.01107
  59        4PX         0.00883   0.00434  -0.00619  -0.00527   0.01236
  60        4PY         0.00070  -0.00033   0.00013  -0.00068  -0.00069
  61        4PZ        -0.01235  -0.00968   0.00970   0.00882  -0.02005
                          11        12        13        14        15
                           O         O         O         O         O
     Eigenvalues --    -7.78652  -7.78627  -7.78309  -7.78309  -7.78309
   1 1   B  1S         -0.00000   0.00135  -0.00000  -0.00000   0.00000
   2        2S          0.00000  -0.00150  -0.00000  -0.00000   0.00000
   3        2PX         0.00078   0.00000  -0.00000  -0.00000  -0.00000
   4        2PY         0.00009  -0.00000   0.00000  -0.00000   0.00000
   5        2PZ         0.00002   0.00000   0.00000   0.00000   0.00000
   6        3S          0.00000  -0.01041   0.00000   0.00000  -0.00000
   7        3PX        -0.00939  -0.00000   0.00000   0.00000   0.00000
   8        3PY        -0.00111   0.00000  -0.00000   0.00000  -0.00000
   9        3PZ        -0.00018  -0.00000  -0.00000  -0.00000  -0.00000
  10 2   Cl 1S          0.00028  -0.00130  -0.00000   0.00000  -0.00000
  11        2S         -0.00097   0.00442  -0.00000   0.00000   0.00000
  12        2PX         0.03123  -0.09799   0.05131   0.58085   0.03764
  13        2PY        -0.07607   0.39935  -0.31378   0.13070  -0.02758
  14        2PZ         0.05079  -0.26045  -0.50044  -0.01813  -0.05645
  15        3S          0.00081  -0.00016   0.00000  -0.00000  -0.00000
  16        3PX         0.00316  -0.00813   0.00425   0.04813   0.00312
  17        3PY        -0.00643   0.03312  -0.02600   0.01083  -0.00229
  18        3PZ         0.00434  -0.02160  -0.04147  -0.00150  -0.00468
  19        4S         -0.00160   0.00120   0.00000  -0.00000  -0.00000
  20        4PX        -0.00157   0.00257  -0.00146  -0.01650  -0.00107
  21        4PY         0.00261  -0.01047   0.00892  -0.00371   0.00078
  22        4PZ        -0.00179   0.00683   0.01422   0.00052   0.00160
  23 3   Cl 1S         -0.00236  -0.00130   0.00000   0.00000   0.00000
  24        2S          0.00825   0.00442  -0.00000   0.00000   0.00000
  25        2PX         0.79563   0.47413  -0.01712  -0.07536  -0.11142
  26        2PY        -0.01432  -0.00954   0.12034  -0.51752   0.27060
  27        2PZ         0.18246   0.11029   0.08401   0.27917   0.50244
  28        3S         -0.00691  -0.00017   0.00000  -0.00000  -0.00000
  29        3PX         0.06836   0.03932  -0.00142  -0.00624  -0.00923
  30        3PY        -0.00116  -0.00079   0.00997  -0.04288   0.02242
  31        3PZ         0.01557   0.00915   0.00696   0.02313   0.04163
  32        4S          0.01366   0.00120   0.00000  -0.00000  -0.00000
  33        4PX        -0.02836  -0.01243   0.00049   0.00214   0.00317
  34        4PY         0.00045   0.00025  -0.00342   0.01470  -0.00769
  35        4PZ        -0.00640  -0.00289  -0.00239  -0.00793  -0.01428
  36 4   Cl 1S          0.00082  -0.00130   0.00000  -0.00000   0.00000
  37        2S         -0.00288   0.00442   0.00000  -0.00000   0.00000
  38        2PX         0.07807  -0.11410   0.02836  -0.26881   0.51299
  39        2PY         0.22967  -0.39540  -0.31276   0.14784  -0.03726
  40        2PZ         0.15035  -0.26007   0.46306  -0.10682  -0.16842
  41        3S          0.00241  -0.00017  -0.00000   0.00000  -0.00000
  42        3PX         0.00715  -0.00946   0.00235  -0.02228   0.04251
  43        3PY         0.01965  -0.03279  -0.02592   0.01225  -0.00309
  44        3PZ         0.01284  -0.02157   0.03837  -0.00885  -0.01396
  45        4S         -0.00477   0.00120  -0.00000   0.00000  -0.00000
  46        4PX        -0.00321   0.00299  -0.00081   0.00764  -0.01458
  47        4PY        -0.00811   0.01036   0.00889  -0.00420   0.00106
  48        4PZ        -0.00528   0.00682  -0.01316   0.00304   0.00479
  49 5   Cl 1S          0.00126  -0.00130  -0.00000  -0.00000  -0.00000
  50        2S         -0.00440   0.00442  -0.00000  -0.00000  -0.00000
  51        2PX         0.24312  -0.26197  -0.06253  -0.23656  -0.43917
  52        2PY        -0.00342   0.00552   0.50612   0.23906  -0.20580
  53        2PZ        -0.36142   0.41031  -0.04673  -0.15425  -0.27763
  54        3S          0.00368  -0.00017   0.00000   0.00000   0.00000
  55        3PX         0.02123  -0.02172  -0.00518  -0.01960  -0.03639
  56        3PY        -0.00023   0.00046   0.04194   0.01981  -0.01705
  57        3PZ        -0.03082   0.03402  -0.00387  -0.01278  -0.02301
  58        4S         -0.00729   0.00120   0.00000   0.00000   0.00000
  59        4PX        -0.00900   0.00687   0.00178   0.00672   0.01248
  60        4PY         0.00006  -0.00014  -0.01438  -0.00679   0.00585
  61        4PZ         0.01266  -0.01075   0.00133   0.00438   0.00789
                          16        17        18        19        20
                           O         O         O         O         O
     Eigenvalues --    -7.78286  -7.78286  -7.78286  -7.78279  -7.78279
   1 1   B  1S         -0.00000  -0.00000  -0.00000  -0.00000   0.00000
   2        2S         -0.00000  -0.00000  -0.00000  -0.00000   0.00000
   3        2PX        -0.00181   0.00016   0.00018  -0.00000  -0.00000
   4        2PY        -0.00024  -0.00088  -0.00158  -0.00000   0.00000
   5        2PZ        -0.00006  -0.00159   0.00089  -0.00000   0.00000
   6        3S          0.00000   0.00000   0.00000   0.00000  -0.00000
   7        3PX         0.01176  -0.00106  -0.00116   0.00000   0.00000
   8        3PY         0.00153   0.00571   0.01029   0.00000  -0.00000
   9        3PZ         0.00036   0.01034  -0.00580   0.00000  -0.00000
  10 2   Cl 1S          0.00000   0.00000  -0.00000  -0.00000   0.00000
  11        2S         -0.00001  -0.00001   0.00010  -0.00000  -0.00000
  12        2PX         0.57768  -0.06010   0.06423  -0.19632  -0.43486
  13        2PY         0.13246   0.31418   0.01696  -0.27629   0.03461
  14        2PZ        -0.01786   0.50260   0.03455  -0.34978   0.21667
  15        3S          0.00011   0.00005  -0.00101   0.00000   0.00000
  16        3PX         0.04689  -0.00487   0.00507  -0.01574  -0.03487
  17        3PY         0.01068   0.02546   0.00197  -0.02216   0.00278
  18        3PZ        -0.00141   0.04080   0.00242  -0.02805   0.01738
  19        4S          0.00037   0.00018  -0.00337   0.00000   0.00000
  20        4PX        -0.01557   0.00163  -0.00195   0.00430   0.00952
  21        4PY        -0.00367  -0.00853   0.00043   0.00605  -0.00076
  22        4PZ         0.00055  -0.01354  -0.00151   0.00766  -0.00474
  23 3   Cl 1S         -0.00000  -0.00000   0.00000   0.00000  -0.00000
  24        2S          0.00010   0.00001  -0.00002   0.00000   0.00000
  25        2PX         0.01138  -0.11371   0.07500  -0.11081   0.00027
  26        2PY         0.08887   0.28841   0.51441  -0.04200  -0.48541
  27        2PZ        -0.11671   0.50596  -0.26056   0.47275  -0.04317
  28        3S         -0.00099  -0.00010   0.00023  -0.00000  -0.00000
  29        3PX         0.00161  -0.00916   0.00593  -0.00889   0.00002
  30        3PY         0.00720   0.02340   0.04175  -0.00337  -0.03893
  31        3PZ        -0.00931   0.04107  -0.02118   0.03791  -0.00346
  32        4S         -0.00329  -0.00034   0.00076  -0.00000  -0.00000
  33        4PX         0.00072   0.00318  -0.00226   0.00243  -0.00001
  34        4PY        -0.00242  -0.00779  -0.01389   0.00092   0.01063
  35        4PZ         0.00339  -0.01364   0.00698  -0.01035   0.00095
  36 4   Cl 1S          0.00000   0.00000   0.00000   0.00000  -0.00000
  37        2S         -0.00003  -0.00008  -0.00004  -0.00000   0.00000
  38        2PX         0.54029  -0.17370  -0.11885  -0.10259   0.46250
  39        2PY        -0.09932  -0.12979   0.30762   0.28202  -0.03516
  40        2PZ        -0.09771   0.24594  -0.42940  -0.38376  -0.14945
  41        3S          0.00036   0.00085   0.00043   0.00000  -0.00000
  42        3PX         0.04390  -0.01395  -0.00957  -0.00823   0.03709
  43        3PY        -0.00785  -0.01004   0.02521   0.02262  -0.00282
  44        3PZ        -0.00779   0.02028  -0.03468  -0.03077  -0.01198
  45        4S          0.00120   0.00284   0.00142   0.00000  -0.00000
  46        4PX        -0.01450   0.00490   0.00332   0.00225  -0.01012
  47        4PY         0.00299   0.00424  -0.00794  -0.00617   0.00077
  48        4PZ         0.00284  -0.00616   0.01184   0.00840   0.00327
  49 5   Cl 1S          0.00000  -0.00000   0.00000   0.00000   0.00000
  50        2S         -0.00005   0.00008  -0.00003   0.00000  -0.00000
  51        2PX         0.42397   0.20696  -0.17389   0.40983  -0.02766
  52        2PY         0.08053   0.28183   0.51956   0.03641   0.48581
  53        2PZ         0.28020   0.11185  -0.11070   0.26117  -0.02419
  54        3S          0.00052  -0.00080   0.00036  -0.00000   0.00000
  55        3PX         0.03460   0.01648  -0.01397   0.03286  -0.00222
  56        3PY         0.00653   0.02288   0.04216   0.00292   0.03896
  57        3PZ         0.02243   0.00956  -0.00920   0.02094  -0.00194
  58        4S          0.00172  -0.00268   0.00119  -0.00000   0.00000
  59        4PX        -0.01115  -0.00605   0.00490  -0.00897   0.00061
  60        4PY        -0.00218  -0.00760  -0.01403  -0.00080  -0.01063
  61        4PZ        -0.00803  -0.00230   0.00267  -0.00572   0.00053
                          21        22        23        24        25
                           O         O         O         O         O
     Eigenvalues --    -7.58446  -0.98100  -0.91122  -0.91122  -0.91122
   1 1   B  1S          0.99055  -0.09562   0.00000  -0.00000  -0.00000
   2        2S          0.10276   0.10572  -0.00000   0.00000   0.00000
   3        2PX        -0.00000  -0.00000  -0.00637  -0.02767   0.09550
   4        2PY        -0.00000  -0.00000   0.09579   0.02392   0.01332
   5        2PZ        -0.00000  -0.00000  -0.02663   0.09267   0.02507
   6        3S         -0.10274   0.19578  -0.00000   0.00000   0.00000
   7        3PX         0.00000  -0.00000   0.00056   0.00242  -0.00836
   8        3PY         0.00000  -0.00000  -0.00839  -0.00209  -0.00117
   9        3PZ         0.00000  -0.00000   0.00233  -0.00811  -0.00219
  10 2   Cl 1S         -0.00013   0.03565   0.06476  -0.01678  -0.01494
  11        2S          0.00056  -0.20878  -0.38097   0.09873   0.08789
  12        2PX         0.00028  -0.00521  -0.00503   0.00289  -0.00391
  13        2PY        -0.00115   0.02123   0.01674  -0.00697  -0.00577
  14        2PZ         0.00075  -0.01385  -0.01285  -0.00130   0.00194
  15        3S         -0.00652   0.27118   0.46897  -0.12153  -0.10819
  16        3PX        -0.00006   0.01086   0.01020  -0.00610   0.00873
  17        3PY         0.00024  -0.04425  -0.03332   0.01438   0.01186
  18        3PZ        -0.00015   0.02886   0.02595   0.00338  -0.00376
  19        4S          0.02547   0.17657   0.43912  -0.11380  -0.10130
  20        4PX         0.00261   0.00063   0.00907  -0.00358   0.00185
  21        4PY        -0.01062  -0.00257  -0.03405   0.01087   0.00934
  22        4PZ         0.00693   0.00168   0.02371  -0.00255  -0.00468
  23 3   Cl 1S         -0.00013   0.03565  -0.00971  -0.00442   0.06772
  24        2S          0.00056  -0.20878   0.05712   0.02598  -0.39834
  25        2PX        -0.00137   0.02520  -0.00356  -0.00028   0.02204
  26        2PY         0.00003  -0.00051  -0.00509  -0.00126  -0.00127
  27        2PZ        -0.00032   0.00586   0.00053  -0.00541   0.00497
  28        3S         -0.00652   0.27118  -0.07031  -0.03198   0.49035
  29        3PX         0.00028  -0.05252   0.00719   0.00035  -0.04411
  30        3PY        -0.00001   0.00106   0.01113   0.00275   0.00268
  31        3PZ         0.00007  -0.01222  -0.00129   0.01176  -0.00992
  32        4S          0.02547   0.17657  -0.06583  -0.02994   0.45913
  33        4PX        -0.01261  -0.00305   0.00651   0.00192  -0.04324
  34        4PY         0.00025   0.00006   0.00388   0.00094   0.00151
  35        4PZ        -0.00293  -0.00071   0.00046   0.00460  -0.00994
  36 4   Cl 1S         -0.00013   0.03565  -0.04272  -0.04297  -0.03206
  37        2S          0.00056  -0.20878   0.25129   0.25278   0.18859
  38        2PX         0.00033  -0.00606   0.00447   0.00565  -0.00206
  39        2PY         0.00114  -0.02102   0.00914   0.01310   0.01002
  40        2PZ         0.00075  -0.01382   0.01085   0.00446   0.00571
  41        3S         -0.00652   0.27118  -0.30934  -0.31117  -0.23215
  42        3PX        -0.00007   0.01264  -0.00916  -0.01171   0.00494
  43        3PY        -0.00023   0.04380  -0.01784  -0.02648  -0.02029
  44        3PZ        -0.00015   0.02881  -0.02230  -0.00835  -0.01142
  45        4S          0.02547   0.17657  -0.28964  -0.29136  -0.21737
  46        4PX         0.00303   0.00073  -0.00744  -0.00838  -0.00138
  47        4PY         0.01052   0.00254  -0.02084  -0.02400  -0.01810
  48        4PZ         0.00692   0.00167  -0.01747  -0.01256  -0.01122
  49 5   Cl 1S         -0.00013   0.03565  -0.01234   0.06417  -0.02072
  50        2S          0.00056  -0.20878   0.07257  -0.37749   0.12186
  51        2PX         0.00076  -0.01392   0.00308  -0.01275  -0.00056
  52        2PY        -0.00002   0.00029  -0.00523  -0.00099  -0.00082
  53        2PZ        -0.00119   0.02181  -0.00285   0.01730  -0.00855
  54        3S         -0.00652   0.27118  -0.08933   0.46468  -0.15001
  55        3PX        -0.00016   0.02902  -0.00632   0.02573   0.00189
  56        3PY         0.00000  -0.00061   0.01140   0.00221   0.00177
  57        3PZ         0.00024  -0.04545   0.00559  -0.03448   0.01761
  58        4S          0.02547   0.17657  -0.08364   0.43510  -0.14046
  59        4PX         0.00697   0.00169  -0.00502   0.02358  -0.00398
  60        4PY        -0.00015  -0.00004   0.00412   0.00048   0.00073
  61        4PZ        -0.01091  -0.00264   0.00633  -0.03486   0.01356
                          26        27        28        29        30
                           O         O         O         O         O
     Eigenvalues --    -0.51652  -0.39943  -0.39943  -0.39943  -0.31960
   1 1   B  1S         -0.15822  -0.00000  -0.00000   0.00000   0.00000
   2        2S          0.16351  -0.00000   0.00000  -0.00000   0.00000
   3        2PX        -0.00000   0.06684   0.21304  -0.09970  -0.00000
   4        2PY        -0.00000  -0.22370   0.02554  -0.09538  -0.00000
   5        2PZ        -0.00000   0.07268  -0.11728  -0.20188  -0.00000
   6        3S          0.57622   0.00000   0.00000  -0.00000  -0.00000
   7        3PX        -0.00000   0.05142   0.16390  -0.07671  -0.00000
   8        3PY        -0.00000  -0.17211   0.01965  -0.07338  -0.00000
   9        3PZ        -0.00000   0.05592  -0.09023  -0.15531   0.00000
  10 2   Cl 1S         -0.01730   0.01250  -0.00216  -0.00264   0.00000
  11        2S          0.10438  -0.07584   0.01313   0.01602  -0.00000
  12        2PX        -0.02009   0.02331  -0.09208   0.02862   0.12234
  13        2PY         0.08187  -0.11410   0.02491   0.08002  -0.00836
  14        2PZ        -0.05340   0.10311   0.02320   0.05133  -0.05886
  15        3S         -0.10633   0.08518  -0.01474  -0.01800   0.00000
  16        3PX         0.04286  -0.04941   0.19998  -0.06251  -0.26275
  17        3PY        -0.17467   0.24286  -0.05326  -0.17288   0.01796
  18        3PZ         0.11392  -0.22078  -0.05103  -0.11233   0.12640
  19        4S         -0.26250   0.19090  -0.03304  -0.04033   0.00000
  20        4PX         0.01563  -0.03230   0.13397  -0.04209  -0.23736
  21        4PY        -0.06371   0.15947  -0.03513  -0.11522   0.01623
  22        4PZ         0.04155  -0.14585  -0.03461  -0.07580   0.11418
  23 3   Cl 1S         -0.01730  -0.00455  -0.00956   0.00747   0.00000
  24        2S          0.10438   0.02763   0.05800  -0.04532  -0.00000
  25        2PX         0.09718   0.06105   0.09965  -0.10403   0.00045
  26        2PY        -0.00196   0.08593  -0.01370   0.04027   0.13567
  27        2PZ         0.02260  -0.00820   0.08858   0.04584   0.00981
  28        3S         -0.10633  -0.03103  -0.06514   0.05090  -0.00000
  29        3PX        -0.20732  -0.13049  -0.21192   0.22248  -0.00097
  30        3PY         0.00417  -0.18689   0.02969  -0.08748  -0.29136
  31        3PZ        -0.04822   0.01835  -0.19149  -0.10054  -0.02106
  32        4S         -0.26250  -0.06955  -0.14599   0.11407   0.00000
  33        4PX        -0.07562  -0.08604  -0.13904   0.14679  -0.00087
  34        4PY         0.00152  -0.12536   0.01985  -0.05862  -0.26321
  35        4PZ        -0.01759   0.01265  -0.12770  -0.06799  -0.01902
  36 4   Cl 1S         -0.01730  -0.00674   0.00042  -0.01105  -0.00000
  37        2S          0.10438   0.04090  -0.00258   0.06710   0.00000
  38        2PX        -0.02339  -0.05728  -0.08155  -0.01192  -0.12859
  39        2PY        -0.08105  -0.02002  -0.00322  -0.13933   0.00848
  40        2PZ        -0.05331  -0.09934   0.05044  -0.03711   0.04352
  41        3S         -0.10633  -0.04593   0.00290  -0.07536  -0.00000
  42        3PX         0.04990   0.12375   0.17736   0.02458   0.27616
  43        3PY         0.17291   0.04074   0.00718   0.29837  -0.01822
  44        3PZ         0.11373   0.21416  -0.10956   0.07767  -0.09347
  45        4S         -0.26250  -0.10294   0.00649  -0.16889  -0.00000
  46        4PX         0.01820   0.08246   0.11898   0.01563   0.24948
  47        4PY         0.06307   0.02551   0.00493   0.19712  -0.01646
  48        4PZ         0.04148   0.14243  -0.07340   0.05013  -0.08444
  49 5   Cl 1S         -0.01730  -0.00121   0.01129   0.00623  -0.00000
  50        2S          0.10438   0.00732  -0.06855  -0.03780   0.00000
  51        2PX        -0.05370  -0.03897   0.03611   0.10505   0.00580
  52        2PY         0.00113   0.08796  -0.01253   0.03600  -0.13579
  53        2PZ         0.08410  -0.00849  -0.14137  -0.02418   0.00553
  54        3S         -0.10633  -0.00822   0.07699   0.04246  -0.00000
  55        3PX         0.11456   0.08440  -0.07540  -0.22669  -0.01245
  56        3PY        -0.00241  -0.19124   0.02719  -0.07831   0.29161
  57        3PZ        -0.17943   0.01899   0.30252   0.04990  -0.01187
  58        4S         -0.26250  -0.01842   0.17254   0.09515  -0.00000
  59        4PX         0.04178   0.05638  -0.04856  -0.15092  -0.01125
  60        4PY        -0.00088  -0.12825   0.01819  -0.05254   0.26344
  61        4PZ        -0.06544   0.01307   0.19973   0.03172  -0.01073
                          31        32        33        34        35
                           O         O         O         O         O
     Eigenvalues --    -0.31960  -0.28424  -0.28424  -0.28424  -0.27007
   1 1   B  1S         -0.00000  -0.00000   0.00000   0.00000   0.00000
   2        2S         -0.00000  -0.00000   0.00000   0.00000  -0.00000
   3        2PX         0.00000   0.01688  -0.10595  -0.07808  -0.00000
   4        2PY        -0.00000  -0.12133   0.01799  -0.05063  -0.00000
   5        2PZ         0.00000   0.05101   0.07784  -0.09459   0.00000
   6        3S          0.00000   0.00000  -0.00000  -0.00000  -0.00000
   7        3PX         0.00000  -0.00611   0.03834   0.02826  -0.00000
   8        3PY        -0.00000   0.04391  -0.00651   0.01832  -0.00000
   9        3PZ         0.00000  -0.01846  -0.02817   0.03423   0.00000
  10 2   Cl 1S          0.00000   0.00056   0.00002  -0.00011  -0.00000
  11        2S         -0.00000  -0.00327  -0.00014   0.00062   0.00000
  12        2PX         0.05276   0.02112  -0.10647  -0.07938  -0.15831
  13        2PY         0.07731  -0.13894   0.01738  -0.04776  -0.00229
  14        2PZ         0.09869   0.06232   0.07882  -0.09729   0.05604
  15        3S          0.00000   0.01532   0.00065  -0.00292  -0.00000
  16        3PX        -0.11331  -0.04505   0.22986   0.17127   0.34392
  17        3PY        -0.16604   0.29772  -0.03763   0.10354   0.00498
  18        3PZ        -0.21196  -0.13308  -0.17009   0.20976  -0.12175
  19        4S          0.00000  -0.04278  -0.00183   0.00814  -0.00000
  20        4PX        -0.10237  -0.04614   0.20532   0.15428   0.30630
  21        4PY        -0.14999   0.29012  -0.03263   0.08805   0.00444
  22        4PZ        -0.19148  -0.13457  -0.15277   0.19055  -0.10844
  23 3   Cl 1S         -0.00000  -0.00013   0.00037   0.00042  -0.00000
  24        2S          0.00000   0.00076  -0.00216  -0.00242   0.00000
  25        2PX         0.03092   0.02165  -0.11981  -0.09338   0.03437
  26        2PY         0.00945  -0.12221   0.01837  -0.05067   0.08949
  27        2PZ        -0.13212   0.05243   0.07528  -0.09864  -0.14002
  28        3S         -0.00000  -0.00357   0.01010   0.01135  -0.00000
  29        3PX        -0.06641  -0.04612   0.25691   0.19964  -0.07467
  30        3PY        -0.02029   0.26383  -0.03962   0.10942  -0.19441
  31        3PZ         0.28375  -0.11304  -0.16293   0.21250   0.30418
  32        4S         -0.00000   0.00998  -0.02822  -0.03169   0.00000
  33        4PX        -0.05999  -0.04785   0.24843   0.19952  -0.06650
  34        4PY        -0.01833   0.23607  -0.03581   0.09743  -0.17314
  35        4PZ         0.25633  -0.10263  -0.14137   0.19492   0.27091
  36 4   Cl 1S          0.00000  -0.00029   0.00014  -0.00048  -0.00000
  37        2S         -0.00000   0.00169  -0.00079   0.00276   0.00000
  38        2PX         0.03082   0.01451  -0.10548  -0.08265   0.00445
  39        2PY        -0.07890  -0.13073   0.02211  -0.06502  -0.00562
  40        2PZ         0.10643   0.04568   0.08098  -0.10445   0.00658
  41        3S          0.00000  -0.00792   0.00369  -0.01293  -0.00000
  42        3PX        -0.06618  -0.03165   0.22788   0.17789  -0.00967
  43        3PY         0.16944   0.28108  -0.04721   0.13852   0.01220
  44        3PZ        -0.22857  -0.09937  -0.17448   0.22427  -0.01430
  45        4S          0.00000   0.02212  -0.01030   0.03612  -0.00000
  46        4PX        -0.05979  -0.02478   0.20215   0.16485  -0.00862
  47        4PY         0.15307   0.26358  -0.04790   0.14381   0.01087
  48        4PZ        -0.20648  -0.08084  -0.15978   0.21368  -0.01274
  49 5   Cl 1S         -0.00000  -0.00014  -0.00053   0.00017   0.00000
  50        2S          0.00000   0.00082   0.00308  -0.00096  -0.00000
  51        2PX        -0.11450   0.01424  -0.11704  -0.07535   0.11949
  52        2PY        -0.00786  -0.12206   0.01832  -0.05103  -0.08158
  53        2PZ        -0.07300   0.05566   0.09464  -0.10028   0.07739
  54        3S         -0.00000  -0.00383  -0.01445   0.00450   0.00000
  55        3PX         0.24591  -0.03110   0.25131   0.16310  -0.25958
  56        3PY         0.01688   0.26352  -0.03953   0.11016   0.17723
  57        3PZ         0.15678  -0.11959  -0.20216   0.21582  -0.16812
  58        4S         -0.00000   0.01069   0.04035  -0.01257   0.00000
  59        4PX         0.22215  -0.02390   0.23950   0.14127  -0.23118
  60        4PY         0.01525   0.23558  -0.03566   0.09862   0.15784
  61        4PZ         0.14163  -0.11308  -0.20390   0.20021  -0.14973
                          36        37        38        39        40
                           O         O         V         V         V
     Eigenvalues --    -0.27007  -0.27007   0.35241   0.38777   0.38777
   1 1   B  1S         -0.00000  -0.00000  -0.24398   0.00000   0.00000
   2        2S          0.00000   0.00000   0.17706  -0.00000  -0.00000
   3        2PX         0.00000  -0.00000   0.00000   0.38269  -0.29889
   4        2PY         0.00000   0.00000   0.00000   0.11128   0.07736
   5        2PZ         0.00000   0.00000   0.00000   0.28050   0.37709
   6        3S          0.00000   0.00000   2.53456  -0.00001  -0.00000
   7        3PX        -0.00000   0.00000   0.00000   1.37487  -1.07381
   8        3PY        -0.00000   0.00000   0.00000   0.39980   0.27794
   9        3PZ        -0.00000  -0.00000   0.00000   1.00774   1.35474
  10 2   Cl 1S         -0.00000   0.00000  -0.01473   0.00555   0.00319
  11        2S          0.00000  -0.00000   0.09372  -0.03551  -0.02042
  12        2PX        -0.04728   0.05416   0.01776   0.02921  -0.03358
  13        2PY        -0.10145   0.00083  -0.07237   0.04315   0.02612
  14        2PZ        -0.13777  -0.01910   0.04720   0.00613   0.02447
  15        3S         -0.00000   0.00000  -0.06635   0.02014   0.01158
  16        3PX         0.10270  -0.11765  -0.03513  -0.05816   0.06590
  17        3PY         0.22039  -0.00180   0.14318  -0.08283  -0.05020
  18        3PZ         0.29929   0.04150  -0.09338  -0.01357  -0.04911
  19        4S         -0.00000   0.00000  -0.59887   0.29644   0.17050
  20        4PX         0.09147  -0.10478  -0.13354  -0.21479   0.26692
  21        4PY         0.19628  -0.00160   0.54424  -0.38170  -0.22959
  22        4PZ         0.26655   0.03696  -0.35494  -0.01669  -0.17191
  23 3   Cl 1S          0.00000  -0.00000  -0.01473  -0.01773   0.00846
  24        2S         -0.00000   0.00000   0.09372   0.11346  -0.05416
  25        2PX         0.00062   0.02114  -0.08589  -0.08554   0.02955
  26        2PY         0.09552  -0.11984   0.00173   0.01327   0.00633
  27        2PZ         0.00560  -0.10126  -0.01998  -0.00131   0.05023
  28        3S          0.00000  -0.00000  -0.06635  -0.06434   0.03071
  29        3PX        -0.00135  -0.04593   0.16994   0.16009  -0.05416
  30        3PY        -0.20752   0.26034  -0.00342  -0.02600  -0.01257
  31        3PZ        -0.01216   0.21999   0.03953   0.00058  -0.09810
  32        4S          0.00000  -0.00000  -0.59888  -0.94720   0.45212
  33        4PX        -0.00120  -0.04091   0.64597   0.84219  -0.31455
  34        4PY        -0.18482   0.23187  -0.01300  -0.10647  -0.04734
  35        4PZ        -0.01083   0.19593   0.15025   0.05184  -0.40916
  36 4   Cl 1S         -0.00000   0.00000  -0.01473   0.01348   0.00794
  37        2S          0.00000  -0.00000   0.09372  -0.08625  -0.05078
  38        2PX         0.04933  -0.16529   0.02067   0.01470  -0.04223
  39        2PY        -0.10326   0.00532   0.07164  -0.06699  -0.03828
  40        2PZ         0.13535   0.06444   0.04712  -0.02393   0.00649
  41        3S         -0.00000   0.00000  -0.06635   0.04891   0.02880
  42        3PX        -0.10717   0.35910  -0.04090  -0.03057   0.08235
  43        3PY         0.22433  -0.01155  -0.14174   0.12665   0.07229
  44        3PZ        -0.29404  -0.13998  -0.09323   0.04362  -0.01490
  45        4S         -0.00000   0.00000  -0.59887   0.72004   0.42389
  46        4PX        -0.09544   0.31982  -0.15547  -0.08114   0.34658
  47        4PY         0.19979  -0.01029  -0.53876   0.63278   0.36360
  48        4PZ        -0.26187  -0.12467  -0.35437   0.26026  -0.00625
  49 5   Cl 1S          0.00000   0.00000  -0.01473  -0.00130  -0.01959
  50        2S         -0.00000  -0.00000   0.09372   0.00830   0.12536
  51        2PX        -0.00267   0.09000   0.04746   0.04211   0.04589
  52        2PY         0.10919   0.11369  -0.00100   0.01070   0.00593
  53        2PZ        -0.00318   0.05593  -0.07434   0.01947  -0.08071
  54        3S          0.00000   0.00000  -0.06635  -0.00471  -0.07109
  55        3PX         0.00581  -0.19551  -0.09391  -0.08269  -0.08524
  56        3PY        -0.23720  -0.24699   0.00198  -0.02111  -0.01181
  57        3PZ         0.00690  -0.12151   0.14708  -0.03893   0.15094
  58        4S          0.00000   0.00000  -0.59887  -0.06926  -1.04650
  59        4PX         0.00518  -0.17413  -0.35695  -0.33357  -0.46507
  60        4PY        -0.21125  -0.21997   0.00752  -0.08276  -0.04367
  61        4PZ         0.00615  -0.10822   0.55906  -0.13950   0.79690
                          41        42        43        44        45
                           V         V         V         V         V
     Eigenvalues --     0.38777   0.80661   0.81457   0.81457   0.81457
   1 1   B  1S          0.00000  -0.07999  -0.00000   0.00000   0.00000
   2        2S         -0.00000   0.41052   0.00000  -0.00000  -0.00000
   3        2PX        -0.04158  -0.00000  -0.14263  -0.04858  -0.96884
   4        2PY         0.46813   0.00000  -0.84151   0.49334   0.09915
   5        2PZ        -0.12900  -0.00000  -0.48257  -0.84594   0.11346
   6        3S         -0.00000   1.20614   0.00000  -0.00000  -0.00000
   7        3PX        -0.14938   0.00000   0.22398   0.07629   1.52140
   8        3PY         1.68183  -0.00001   1.32145  -0.77471  -0.15570
   9        3PZ        -0.46344   0.00000   0.75780   1.32840  -0.17817
  10 2   Cl 1S         -0.01886   0.03208  -0.00720   0.01547   0.00385
  11        2S          0.12064  -0.19375   0.04519  -0.09712  -0.02415
  12        2PX         0.02293  -0.00202   0.01302   0.00476   0.08942
  13        2PY        -0.06446   0.00825   0.07814  -0.04665  -0.00943
  14        2PZ         0.05916  -0.00538   0.04416   0.07877  -0.01028
  15        3S         -0.06842   0.93650  -0.16391   0.35228   0.08762
  16        3PX        -0.04333   0.01322  -0.04362  -0.00957  -0.28075
  17        3PY         0.11942  -0.05387  -0.23618   0.12493   0.02422
  18        3PZ        -0.11164   0.03513  -0.14605  -0.23400   0.03603
  19        4S         -1.00713  -1.14595  -0.12507   0.26881   0.06686
  20        4PX        -0.21713  -0.07138  -0.04234   0.08217  -0.00337
  21        4PY         0.66018   0.29088   0.13717  -0.32752  -0.08205
  22        4PZ        -0.56319  -0.18971  -0.11512   0.20056   0.05794
  23 3   Cl 1S          0.00322   0.03208  -0.00413  -0.00444  -0.01641
  24        2S         -0.02062  -0.19375   0.02595   0.02784   0.10300
  25        2PX         0.01826   0.00979   0.01352   0.00487   0.09080
  26        2PY         0.04500  -0.00020   0.07760  -0.04551  -0.00917
  27        2PZ        -0.00734   0.00228   0.04459   0.07811  -0.01013
  28        3S          0.01169   0.93650  -0.09413  -0.10099  -0.37362
  29        3PX        -0.03445  -0.06394  -0.03560  -0.00780  -0.25847
  30        3PY        -0.08877   0.00129  -0.24496   0.14341   0.02838
  31        3PZ         0.01483  -0.01487  -0.13903  -0.24466   0.03846
  32        4S          0.17216  -1.14596  -0.07183  -0.07705  -0.28508
  33        4PX        -0.17412   0.34525   0.10421   0.11440   0.40363
  34        4PY        -0.34805  -0.00695  -0.02311   0.00995  -0.00614
  35        4PZ         0.04927   0.08031   0.01306   0.00584   0.10232
  36 4   Cl 1S          0.01232   0.03208   0.01739   0.00112   0.00153
  37        2S         -0.07883  -0.19375  -0.10916  -0.00701  -0.00962
  38        2PX        -0.02455  -0.00236   0.01352   0.00450   0.08939
  39        2PY        -0.02565  -0.00816   0.07889  -0.04542  -0.00903
  40        2PZ        -0.05929  -0.00537   0.04535   0.07807  -0.01039
  41        3S          0.04471   0.93650   0.39596   0.02543   0.03491
  42        3PX         0.04698   0.01539  -0.03553  -0.01375  -0.28136
  43        3PY         0.04561   0.05333  -0.22414   0.14487   0.03067
  44        3PZ         0.11364   0.03507  -0.12679  -0.24526   0.03421
  45        4S          0.65811  -1.14596   0.30213   0.01941   0.02664
  46        4PX         0.22026  -0.08310   0.10556   0.00580  -0.01449
  47        4PY         0.30269  -0.28795   0.35714   0.03657   0.03580
  48        4PZ         0.52779  -0.18941   0.23668  -0.00507   0.02475
  49 5   Cl 1S          0.00331   0.03208  -0.00606  -0.01216   0.01103
  50        2S         -0.02119  -0.19375   0.03802   0.07629  -0.06922
  51        2PX        -0.01670  -0.00541   0.01286   0.00389   0.08989
  52        2PY         0.04571   0.00011   0.07762  -0.04549  -0.00916
  53        2PZ         0.00730   0.00847   0.04497   0.07895  -0.01131
  54        3S          0.01201   0.93650  -0.13791  -0.27674   0.25109
  55        3PX         0.03204   0.03533  -0.04628  -0.02372  -0.27319
  56        3PY        -0.09013  -0.00074  -0.24474   0.14374   0.02867
  57        3PZ        -0.01301  -0.05533  -0.13292  -0.23112   0.01939
  58        4S          0.17686  -1.14596  -0.10524  -0.21115   0.19159
  59        4PX         0.14788  -0.19078  -0.09080  -0.17628   0.13474
  60        4PY        -0.35464   0.00402  -0.01910   0.01596  -0.00088
  61        4PZ        -0.08557   0.29880   0.12464   0.25314  -0.24596
                          46        47        48        49        50
                           V         V         V         V         V
     Eigenvalues --     0.92893   0.92893   0.92893   0.93005   0.94076
   1 1   B  1S          0.00000   0.00000  -0.00000  -0.00010   0.00000
   2        2S          0.00001  -0.00000  -0.00000  -0.29436  -0.00000
   3        2PX        -0.03365  -0.03314   0.27619  -0.00000   0.00000
   4        2PY        -0.25747   0.10901  -0.01829  -0.00001   0.00000
   5        2PZ        -0.10528  -0.25598  -0.04354  -0.00000  -0.00000
   6        3S         -0.00007   0.00001   0.00000   2.17479   0.00000
   7        3PX         0.10020   0.09867  -0.82242   0.00000  -0.00000
   8        3PY         0.76669  -0.32460   0.05446   0.00002  -0.00000
   9        3PZ         0.31351   0.76226   0.12965   0.00000   0.00000
  10 2   Cl 1S          0.02032  -0.03196   0.00649  -0.00275  -0.00000
  11        2S         -0.12327   0.19396  -0.03937   0.02030   0.00000
  12        2PX         0.03631  -0.03728  -0.05458  -0.03604   0.15986
  13        2PY        -0.05699   0.15795  -0.03294   0.14688  -0.01093
  14        2PZ         0.10017  -0.06037   0.03428  -0.09579  -0.07691
  15        3S          0.57381  -0.90283   0.18325   0.04003  -0.00000
  16        3PX        -0.12235   0.12943   0.17114   0.12592  -0.55006
  17        3PY         0.20952  -0.54657   0.11375  -0.51318   0.03760
  18        3PZ        -0.33679   0.22100  -0.11482   0.33468   0.26462
  19        4S         -0.75434   1.18691  -0.24092  -0.46134   0.00000
  20        4PX         0.05252  -0.07894   0.00444  -0.18643   0.49784
  21        4PY        -0.19711   0.32282  -0.06569   0.75977  -0.03404
  22        4PZ         0.14028  -0.20259   0.04522  -0.49550  -0.23950
  23 3   Cl 1S          0.00707   0.01267  -0.03558  -0.00275  -0.00000
  24        2S         -0.04291  -0.07688   0.21590   0.02031   0.00000
  25        2PX        -0.04032  -0.07849   0.17819   0.17433   0.00059
  26        2PY         0.06035  -0.02341  -0.00065  -0.00351   0.17727
  27        2PZ         0.01310   0.03900   0.06631   0.04055   0.01281
  28        3S          0.19975   0.35787  -1.00497   0.04001  -0.00000
  29        3PX         0.13987   0.27044  -0.62529  -0.60911  -0.00202
  30        3PY        -0.19194   0.07393   0.00326   0.01225  -0.60996
  31        3PZ        -0.03886  -0.11899  -0.22441  -0.14168  -0.04409
  32        4S         -0.26259  -0.47048   1.32119  -0.46131   0.00000
  33        4PX        -0.08458  -0.15265   0.42082   0.90178   0.00183
  34        4PY         0.01279  -0.00158  -0.00793  -0.01815   0.55206
  35        4PZ        -0.01549  -0.02484   0.10252   0.20976   0.03991
  36 4   Cl 1S         -0.03747  -0.00768   0.00365  -0.00275   0.00000
  37        2S          0.22738   0.04659  -0.02215   0.02032  -0.00000
  38        2PX        -0.05355  -0.00492  -0.05772  -0.04196  -0.16803
  39        2PY        -0.15309  -0.06867   0.02492  -0.14541   0.01108
  40        2PZ        -0.11547   0.03040   0.02365  -0.09564   0.05687
  41        3S         -1.05844  -0.21687   0.10310   0.03998   0.00000
  42        3PX         0.18514   0.01871   0.18190   0.14661   0.57815
  43        3PY         0.53835   0.22882  -0.08421   0.50804  -0.03814
  44        3PZ         0.40104  -0.08956  -0.07848   0.33417  -0.19567
  45        4S          1.39149   0.28510  -0.13554  -0.46127  -0.00000
  46        4PX        -0.10823  -0.02105  -0.00118  -0.21705  -0.52327
  47        4PY        -0.36899  -0.08256   0.03781  -0.75214   0.03452
  48        4PZ        -0.24546  -0.04023   0.02622  -0.49472   0.17710
  49 5   Cl 1S          0.01009   0.02697   0.02544  -0.00275   0.00000
  50        2S         -0.06120  -0.16366  -0.15438   0.02031  -0.00000
  51        2PX         0.04565   0.10897   0.03188  -0.09633   0.00758
  52        2PY         0.05858  -0.02727   0.00220   0.00203  -0.17743
  53        2PZ        -0.03507  -0.09966  -0.13965   0.15088   0.00722
  54        3S          0.28488   0.76183   0.71862   0.04001   0.00000
  55        3PX        -0.15430  -0.37096  -0.12468   0.33658  -0.02607
  56        3PY        -0.18589   0.08716  -0.00651  -0.00710   0.61050
  57        3PZ         0.12593   0.35544   0.48028  -0.52716  -0.02486
  58        4S         -0.37450  -1.00154  -0.94473  -0.46131  -0.00000
  59        4PX         0.06924   0.18267   0.15910  -0.49831   0.02360
  60        4PY         0.00963  -0.00850  -0.00281   0.01050  -0.55254
  61        4PZ        -0.10165  -0.27287  -0.26590   0.78046   0.02250
                          51        52        53        54        55
                           V         V         V         V         V
     Eigenvalues --     0.94076   0.97667   0.97667   0.97667   1.07851
   1 1   B  1S         -0.00000  -0.00000  -0.00000  -0.00000   0.00000
   2        2S          0.00000   0.00000   0.00000   0.00000  -0.00000
   3        2PX        -0.00000  -0.50005  -0.06293  -0.16060  -0.00000
   4        2PY         0.00000   0.08568  -0.51807  -0.06376  -0.00000
   5        2PZ        -0.00000   0.14970   0.08629  -0.49994   0.00000
   6        3S         -0.00000  -0.00000   0.00000  -0.00000   0.00000
   7        3PX        -0.00000   2.21559   0.27884   0.71155   0.00000
   8        3PY        -0.00000  -0.37962   2.29542   0.28251   0.00000
   9        3PZ         0.00000  -0.66329  -0.38233   2.21512  -0.00000
  10 2   Cl 1S         -0.00000  -0.00314   0.01585  -0.00856   0.00000
  11        2S          0.00000   0.01818  -0.09173   0.04952  -0.00000
  12        2PX         0.06895  -0.15598  -0.06008  -0.03130   0.19300
  13        2PY         0.10102  -0.00381  -0.00884  -0.10772  -0.00035
  14        2PZ         0.12896   0.06982  -0.07664  -0.10713  -0.07315
  15        3S         -0.00000  -0.11855   0.59827  -0.32295   0.00000
  16        3PX        -0.23723   0.57187   0.21678   0.11639  -0.70032
  17        3PY        -0.34760   0.01132   0.04567   0.38731   0.00126
  18        3PZ        -0.44373  -0.25400   0.27201   0.39703   0.26543
  19        4S          0.00000   0.30787  -1.55373   0.83870  -0.00000
  20        4PX         0.21471  -0.88767  -0.43690  -0.13401   0.77935
  21        4PY         0.31460  -0.09335   0.30822  -0.81917  -0.00140
  22        4PZ         0.40161   0.45166  -0.67924  -0.49514  -0.29537
  23 3   Cl 1S          0.00000   0.01572   0.00109   0.00928   0.00000
  24        2S         -0.00000  -0.09097  -0.00632  -0.05369  -0.00000
  25        2PX         0.04041   0.02553  -0.00746   0.05914  -0.04071
  26        2PY         0.01234   0.02425  -0.16996  -0.02314  -0.11099
  27        2PZ        -0.17264   0.09307   0.03132  -0.13777   0.16541
  28        3S          0.00000   0.59327   0.04121   0.35016   0.00000
  29        3PX        -0.13903  -0.07785   0.02842  -0.20734   0.14772
  30        3PY        -0.04248  -0.08914   0.62243   0.08454   0.40276
  31        3PZ         0.59403  -0.33722  -0.11446   0.50670  -0.60024
  32        4S         -0.00000  -1.54074  -0.10702  -0.90936  -0.00000
  33        4PX         0.12583   0.57132  -0.01392   0.59294  -0.16439
  34        4PY         0.03844   0.13223  -0.98691  -0.13928  -0.44821
  35        4PZ        -0.53764   0.63855   0.18861  -0.74141   0.66796
  36 4   Cl 1S         -0.00000   0.00112  -0.01346  -0.01232  -0.00000
  37        2S          0.00000  -0.00647   0.07790   0.07132   0.00000
  38        2PX         0.04027  -0.16704   0.01841  -0.01688  -0.01135
  39        2PY        -0.10310   0.01683  -0.03447   0.10292   0.00383
  40        2PZ         0.13907   0.04164   0.11721  -0.08233  -0.00084
  41        3S         -0.00000   0.04222  -0.50808  -0.46514  -0.00000
  42        3PX        -0.13855   0.61148  -0.06420   0.06477   0.04120
  43        3PY         0.35473  -0.06256   0.13741  -0.36667  -0.01389
  44        3PZ        -0.47851  -0.15313  -0.42192   0.30825   0.00304
  45        4S          0.00000  -0.10965   1.31949   1.20798   0.00000
  46        4PX         0.12540  -0.97660   0.19406  -0.01810  -0.04585
  47        4PY        -0.32105   0.07254   0.10223   0.87394   0.01546
  48        4PZ         0.43309   0.22515   0.87902  -0.29577  -0.00339
  49 5   Cl 1S          0.00000  -0.01369  -0.00348   0.01160  -0.00000
  50        2S         -0.00000   0.07926   0.02015  -0.06715   0.00000
  51        2PX        -0.14962  -0.07264   0.00256  -0.12983  -0.14093
  52        2PY        -0.01027   0.02614  -0.17019  -0.01926   0.10751
  53        2PZ        -0.09539  -0.09374  -0.00803  -0.04281  -0.09143
  54        3S          0.00000  -0.51695  -0.13140   0.43793  -0.00000
  55        3PX         0.51480   0.27355  -0.00745   0.46909   0.51140
  56        3PY         0.03535  -0.09591   0.62323   0.07067  -0.39013
  57        3PZ         0.32822   0.33149   0.02640   0.16678   0.33177
  58        4S         -0.00000   1.34252   0.34126  -1.13731   0.00000
  59        4PX        -0.46593  -0.21778   0.06663  -0.92602  -0.56911
  60        4PY        -0.03199   0.14743  -0.98871  -0.10813   0.43415
  61        4PZ        -0.29706  -0.86309  -0.12770   0.02190  -0.36920
                          56        57        58        59        60
                           V         V         V         V         V
     Eigenvalues --     1.07851   1.07851   1.22610   1.22610   1.22610
   1 1   B  1S         -0.00000  -0.00000   0.00000  -0.00000  -0.00000
   2        2S         -0.00000  -0.00000   0.00000  -0.00000   0.00000
   3        2PX         0.00000  -0.00000  -0.19398  -0.05983   0.06772
   4        2PY        -0.00000   0.00000   0.08770  -0.16331   0.10692
   5        2PZ         0.00000   0.00000   0.02179   0.12467   0.17255
   6        3S         -0.00000   0.00000   0.00000   0.00000  -0.00000
   7        3PX         0.00000   0.00000  -0.68083  -0.20998   0.23769
   8        3PY         0.00000  -0.00000   0.30780  -0.57320   0.37528
   9        3PZ         0.00000  -0.00000   0.07648   0.43759   0.60564
  10 2   Cl 1S          0.00000  -0.00000   0.01882  -0.03573  -0.00345
  11        2S         -0.00000   0.00000  -0.11354   0.21561   0.02084
  12        2PX         0.06143  -0.05954  -0.07453   0.00860   0.02365
  13        2PY         0.12318  -0.00290   0.08554  -0.16144   0.02249
  14        2PZ         0.16576   0.01795  -0.03126   0.11093   0.06056
  15        3S          0.00000  -0.00000   0.65550  -1.24481  -0.12035
  16        3PX        -0.22290   0.21604   0.28104  -0.04063  -0.08857
  17        3PY        -0.44697   0.01053  -0.33601   0.63439  -0.07997
  18        3PZ        -0.60150  -0.06514   0.12819  -0.43465  -0.22684
  19        4S         -0.00000   0.00000  -0.91481   1.73725   0.16796
  20        4PX         0.24805  -0.24042  -0.31308   0.16418   0.08975
  21        4PY         0.49741  -0.01172   0.56952  -1.07829   0.01909
  22        4PZ         0.66937   0.07249  -0.29204   0.72149   0.23107
  23 3   Cl 1S          0.00000   0.00000  -0.03517  -0.00508   0.01950
  24        2S         -0.00000  -0.00000   0.21221   0.03065  -0.11764
  25        2PX        -0.00224  -0.02718  -0.18959  -0.03726   0.09274
  26        2PY        -0.11657   0.14326   0.02983  -0.05033   0.03175
  27        2PZ        -0.00044   0.12924  -0.02333   0.03436   0.07025
  28        3S          0.00000   0.00000  -1.22518  -0.17696   0.67921
  29        3PX         0.00814   0.09862   0.74477   0.14420  -0.36703
  30        3PY         0.42299  -0.51983  -0.11148   0.18654  -0.11730
  31        3PZ         0.00161  -0.46897   0.09619  -0.12605  -0.26593
  32        4S         -0.00000  -0.00000   1.70986   0.24696  -0.94791
  33        4PX        -0.00906  -0.10975  -1.26286  -0.21437   0.66008
  34        4PY        -0.47072   0.57849   0.10964  -0.16104   0.09555
  35        4PZ        -0.00179   0.52189  -0.22650   0.08943   0.31114
  36 4   Cl 1S         -0.00000   0.00000  -0.00708   0.01516  -0.03691
  37        2S          0.00000  -0.00000   0.04275  -0.09150   0.22274
  38        2PX        -0.05695   0.20131  -0.05395  -0.03200   0.05371
  39        2PY         0.12540  -0.00823   0.04896  -0.09722   0.14644
  40        2PZ        -0.16567  -0.07580   0.02106   0.00811   0.12806
  41        3S         -0.00000   0.00000  -0.24679   0.52825  -1.28599
  42        3PX         0.20664  -0.73048   0.19809   0.12300  -0.20970
  43        3PY        -0.45504   0.02988  -0.18858   0.37555  -0.57957
  44        3PZ         0.60115   0.27506  -0.08271  -0.02024  -0.49893
  45        4S          0.00000  -0.00000   0.34442  -0.73722   1.79472
  46        4PX        -0.22996   0.81291  -0.14319  -0.17095   0.33785
  47        4PY         0.50639  -0.03325   0.26755  -0.54816   1.04234
  48        4PZ        -0.66898  -0.30610   0.13991  -0.12728   0.78835
  49 5   Cl 1S          0.00000  -0.00000   0.02344   0.02565   0.02087
  50        2S         -0.00000   0.00000  -0.14142  -0.15476  -0.12594
  51        2PX        -0.00224  -0.11459  -0.10786  -0.07071  -0.02140
  52        2PY        -0.13201  -0.13212   0.02823  -0.04961   0.03409
  53        2PZ         0.00035  -0.07139   0.08137   0.12036   0.12002
  54        3S          0.00000  -0.00000   0.81647   0.89352   0.72712
  55        3PX         0.00812   0.41582   0.41537   0.27901   0.09301
  56        3PY         0.47903   0.47943  -0.10503   0.18363  -0.12672
  57        3PZ        -0.00126   0.25904  -0.32581  -0.47266  -0.46651
  58        4S         -0.00000   0.00000  -1.13947  -1.24699  -1.01477
  59        4PX        -0.00903  -0.46274  -0.58821  -0.49049  -0.28215
  60        4PY        -0.53308  -0.53353   0.09643  -0.15508   0.11484
  61        4PZ         0.00140  -0.28827   0.63781   0.79934   0.72195
                          61
                           V
     Eigenvalues --     1.68054
   1 1   B  1S         -0.16444
   2        2S         -2.46948
   3        2PX        -0.00000
   4        2PY         0.00000
   5        2PZ        -0.00000
   6        3S          6.70436
   7        3PX        -0.00000
   8        3PY        -0.00000
   9        3PZ        -0.00000
  10 2   Cl 1S          0.00998
  11        2S         -0.05002
  12        2PX         0.00497
  13        2PY        -0.02024
  14        2PZ         0.01320
  15        3S          0.67956
  16        3PX        -0.01493
  17        3PY         0.06087
  18        3PZ        -0.03969
  19        4S         -2.05687
  20        4PX        -0.20331
  21        4PY         0.82858
  22        4PZ        -0.54038
  23 3   Cl 1S          0.00998
  24        2S         -0.05002
  25        2PX        -0.02403
  26        2PY         0.00048
  27        2PZ        -0.00559
  28        3S          0.67956
  29        3PX         0.07224
  30        3PY        -0.00145
  31        3PZ         0.01680
  32        4S         -2.05687
  33        4PX         0.98345
  34        4PY        -0.01980
  35        4PZ         0.22876
  36 4   Cl 1S          0.00998
  37        2S         -0.05002
  38        2PX         0.00578
  39        2PY         0.02004
  40        2PZ         0.01318
  41        3S          0.67956
  42        3PX        -0.01739
  43        3PY        -0.06025
  44        3PZ        -0.03963
  45        4S         -2.05687
  46        4PX        -0.23670
  47        4PY        -0.82024
  48        4PZ        -0.53952
  49 5   Cl 1S          0.00998
  50        2S         -0.05002
  51        2PX         0.01328
  52        2PY        -0.00028
  53        2PZ        -0.02079
  54        3S          0.67956
  55        3PX        -0.03992
  56        3PY         0.00084
  57        3PZ         0.06252
  58        4S         -2.05687
  59        4PX        -0.54344
  60        4PY         0.01145
  61        4PZ         0.85114
     Density Matrix:
                           1         2         3         4         5
   1 1   B  1S          2.03073
   2        2S          0.13167   0.09729
   3        2PX         0.00000  -0.00000   0.17466
   4        2PY         0.00000  -0.00000   0.00000   0.17466
   5        2PZ         0.00000  -0.00000  -0.00000   0.00000   0.17466
   6        3S         -0.42358   0.20703  -0.00000  -0.00000  -0.00000
   7        3PX         0.00000  -0.00000   0.07743  -0.00000  -0.00000
   8        3PY         0.00000  -0.00000  -0.00000   0.07743  -0.00000
   9        3PZ         0.00000  -0.00000  -0.00000  -0.00000   0.07743
  10 2   Cl 1S         -0.00082   0.00798  -0.00153   0.00623  -0.00406
  11        2S          0.00624  -0.02254   0.00845  -0.03442   0.02245
  12        2PX         0.00765  -0.00734  -0.00901  -0.02303   0.01502
  13        2PY        -0.03116   0.02991  -0.02303   0.07918  -0.06120
  14        2PZ         0.02032  -0.01951   0.01502  -0.06120   0.02525
  15        3S         -0.03140   0.01937  -0.01035   0.04220  -0.02752
  16        3PX        -0.01578   0.01632   0.01580   0.04795  -0.03127
  17        3PY         0.06430  -0.06650   0.04795  -0.16783   0.12743
  18        3PZ        -0.04193   0.04337  -0.03127   0.12743  -0.05554
  19        4S          0.09991  -0.04219  -0.00151   0.00617  -0.00402
  20        4PX         0.00011   0.00584  -0.00751   0.03392  -0.02212
  21        4PY        -0.00046  -0.02378   0.03392  -0.13744   0.09016
  22        4PZ         0.00030   0.01551  -0.02212   0.09016  -0.05799
  23 3   Cl 1S         -0.00082   0.00798   0.00739  -0.00015   0.00172
  24        2S          0.00624  -0.02254  -0.04086   0.00082  -0.00950
  25        2PX        -0.03699   0.03550   0.11754  -0.00266   0.03075
  26        2PY         0.00074  -0.00071  -0.00266  -0.01461  -0.00062
  27        2PZ        -0.00860   0.00826   0.03075  -0.00062  -0.00751
  28        3S         -0.03140   0.01937   0.05008  -0.00101   0.01165
  29        3PX         0.07632  -0.07893  -0.24770   0.00554  -0.06403
  30        3PY        -0.00154   0.00159   0.00554   0.02746   0.00129
  31        3PZ         0.01775  -0.01836  -0.06403   0.00129   0.01268
  32        4S          0.09991  -0.04219   0.00732  -0.00015   0.00170
  33        4PX        -0.00054  -0.02823  -0.19395   0.00392  -0.04530
  34        4PY         0.00001   0.00057   0.00392   0.00073   0.00091
  35        4PZ        -0.00013  -0.00657  -0.04530   0.00091  -0.00972
  36 4   Cl 1S         -0.00082   0.00798  -0.00178  -0.00617  -0.00406
  37        2S          0.00624  -0.02254   0.00983   0.03408   0.02241
  38        2PX         0.00890  -0.00854  -0.00700   0.02654   0.01746
  39        2PY         0.03085  -0.02961   0.02654   0.07730   0.06049
  40        2PZ         0.02029  -0.01948   0.01746   0.06049   0.02513
  41        3S         -0.03140   0.01937  -0.01205  -0.04177  -0.02748
  42        3PX        -0.01837   0.01900   0.01162  -0.05526  -0.03635
  43        3PY        -0.06365   0.06583  -0.05526  -0.16391  -0.12595
  44        3PZ        -0.04187   0.04330  -0.03635  -0.12595  -0.05528
  45        4S          0.09991  -0.04219  -0.00176  -0.00611  -0.00402
  46        4PX         0.00013   0.00679  -0.01047  -0.03910  -0.02572
  47        4PY         0.00045   0.02354  -0.03910  -0.13466  -0.08911
  48        4PZ         0.00030   0.01548  -0.02572  -0.08911  -0.05780
  49 5   Cl 1S         -0.00082   0.00798  -0.00408   0.00009   0.00640
  50        2S          0.00624  -0.02254   0.02258  -0.00048  -0.03536
  51        2PX         0.02044  -0.01962   0.02571  -0.00085  -0.06322
  52        2PY        -0.00043   0.00041  -0.00085  -0.01464   0.00133
  53        2PZ        -0.03201   0.03072  -0.06322   0.00133   0.08436
  54        3S         -0.03140   0.01937  -0.02768   0.00058   0.04335
  55        3PX        -0.04217   0.04361  -0.05648   0.00177   0.13164
  56        3PY         0.00089  -0.00092   0.00177   0.02753  -0.00277
  57        3PZ         0.06605  -0.06831   0.13164  -0.00277  -0.17862
  58        4S          0.09991  -0.04219  -0.00405   0.00009   0.00634
  59        4PX         0.00030   0.01560  -0.05866   0.00125   0.09314
  60        4PY        -0.00001  -0.00033   0.00125   0.00079  -0.00196
  61        4PZ        -0.00047  -0.02443   0.09314  -0.00196  -0.14507
                           6         7         8         9        10
   6        3S          0.77061
   7        3PX        -0.00000   0.07739
   8        3PY        -0.00000  -0.00000   0.07739
   9        3PZ        -0.00000  -0.00000  -0.00000   0.07739
  10 2   Cl 1S         -0.03628   0.00549  -0.02238   0.01459   2.14404
  11        2S          0.10124  -0.01608   0.06555  -0.04275  -0.57274
  12        2PX        -0.02311  -0.03232  -0.01038   0.00677   0.00084
  13        2PY         0.09418  -0.01038   0.00743  -0.02759  -0.00341
  14        2PZ        -0.06142   0.00677  -0.02759  -0.01688   0.00222
  15        3S         -0.00579   0.00676  -0.02756   0.01797  -0.03281
  16        3PX         0.05386   0.09872   0.03367  -0.02196  -0.00230
  17        3PY        -0.21950   0.03367  -0.03022   0.08948   0.00936
  18        3PZ         0.14315  -0.02196   0.08948   0.04863  -0.00610
  19        4S         -0.24409   0.01829  -0.07453   0.04861   0.16728
  20        4PX         0.01737   0.07166   0.02100  -0.01370   0.00380
  21        4PY        -0.07077   0.02100  -0.00877   0.05582  -0.01550
  22        4PZ         0.04616  -0.01370   0.05582   0.04042   0.01011
  23 3   Cl 1S         -0.03628  -0.02656   0.00053  -0.00618  -0.00003
  24        2S          0.10124   0.07780  -0.00157   0.01810   0.00025
  25        2PX         0.11178   0.02472  -0.00120   0.01386  -0.00072
  26        2PY        -0.00225  -0.00120  -0.03484  -0.00028   0.00118
  27        2PZ         0.02600   0.01386  -0.00028  -0.03164  -0.00086
  28        3S         -0.00579  -0.03271   0.00066  -0.00761   0.00093
  29        3PX        -0.26053  -0.08630   0.00389  -0.04496   0.00098
  30        3PY         0.00524   0.00389   0.10691   0.00090  -0.00236
  31        3PZ        -0.06060  -0.04496   0.00090   0.09653   0.00163
  32        4S         -0.24409  -0.08846   0.00178  -0.02058  -0.00107
  33        4PX        -0.08400  -0.04375   0.00243  -0.02804   0.00225
  34        4PY         0.00169   0.00243   0.07677   0.00056  -0.00109
  35        4PZ        -0.01954  -0.02804   0.00056   0.07029   0.00115
  36 4   Cl 1S         -0.03628   0.00639   0.02215   0.01457  -0.00003
  37        2S          0.10124  -0.01873  -0.06489  -0.04268   0.00025
  38        2PX        -0.02690  -0.03142   0.01196   0.00787  -0.00018
  39        2PY        -0.09323   0.01196   0.00658   0.02726   0.00153
  40        2PZ        -0.06132   0.00787   0.02726  -0.01694  -0.00052
  41        3S         -0.00579   0.00787   0.02728   0.01795   0.00093
  42        3PX         0.06270   0.09579  -0.03880  -0.02552   0.00048
  43        3PY         0.21729  -0.03880  -0.02747  -0.08844  -0.00269
  44        3PZ         0.14292  -0.02552  -0.08844   0.04881   0.00131
  45        4S         -0.24409   0.02129   0.07378   0.04853  -0.00107
  46        4PX         0.02022   0.06983  -0.02420  -0.01592  -0.00022
  47        4PY         0.07006  -0.02420  -0.00705  -0.05517  -0.00271
  48        4PZ         0.04608  -0.01592  -0.05517   0.04053  -0.00041
  49 5   Cl 1S         -0.03628   0.01468  -0.00031  -0.02299  -0.00003
  50        2S          0.10124  -0.04299   0.00091   0.06733   0.00025
  51        2PX        -0.06177  -0.01667  -0.00038  -0.02850  -0.00004
  52        2PY         0.00130  -0.00038  -0.03486   0.00060   0.00116
  53        2PZ         0.09674  -0.02850   0.00060   0.00976  -0.00114
  54        3S         -0.00579   0.01808  -0.00038  -0.02831   0.00093
  55        3PX         0.14396   0.04797   0.00124   0.09244   0.00035
  56        3PY        -0.00303   0.00124   0.10696  -0.00195  -0.00234
  57        3PZ        -0.22548   0.09244  -0.00195  -0.03779   0.00188
  58        4S         -0.24409   0.04888  -0.00103  -0.07656  -0.00107
  59        4PX         0.04642   0.04000   0.00078   0.05766  -0.00084
  60        4PY        -0.00098   0.00078   0.07680  -0.00121  -0.00103
  61        4PZ        -0.07270   0.05766  -0.00121  -0.01349   0.00241
                          11        12        13        14        15
  11        2S          2.38532
  12        2PX        -0.00445   2.05089
  13        2PY         0.01815   0.00612   2.02745
  14        2PZ        -0.01183  -0.00399   0.01627   2.04178
  15        3S         -0.26888   0.00635  -0.02589   0.01689   0.72100
  16        3PX         0.01027  -0.17530  -0.01363   0.00889  -0.00763
  17        3PY        -0.04186  -0.01363  -0.12308  -0.03623   0.03111
  18        3PZ         0.02730   0.00889  -0.03623  -0.15501  -0.02029
  19        4S         -0.69215   0.00913  -0.03720   0.02426   0.62218
  20        4PX        -0.00559  -0.33576  -0.01432   0.00934  -0.00545
  21        4PY         0.02279  -0.01432  -0.28093  -0.03805   0.02223
  22        4PZ        -0.01486   0.00934  -0.03805  -0.31446  -0.01449
  23 3   Cl 1S          0.00025   0.00148  -0.00040   0.00056   0.00093
  24        2S         -0.00246  -0.00981   0.00311  -0.00402   0.00014
  25        2PX         0.00535   0.00993  -0.00546   0.00631   0.00077
  26        2PY        -0.00773  -0.00764   0.00424  -0.00655   0.00493
  27        2PZ         0.00580   0.00762  -0.00606   0.00142  -0.00278
  28        3S          0.00014   0.00549   0.00156   0.00028  -0.00069
  29        3PX        -0.01056  -0.02109   0.01152  -0.01332   0.00622
  30        3PY         0.01676   0.01714  -0.00856   0.01372  -0.01356
  31        3PZ        -0.01235  -0.01668   0.01248  -0.00308   0.00948
  32        4S          0.00596   0.04524  -0.02300   0.02373  -0.01356
  33        4PX        -0.01226  -0.04255   0.02255  -0.02610   0.01121
  34        4PY         0.01147   0.02342  -0.01579   0.02334  -0.01077
  35        4PZ        -0.00956  -0.02661   0.02315  -0.00511   0.00891
  36 4   Cl 1S          0.00025  -0.00024  -0.00152  -0.00052   0.00093
  37        2S         -0.00246   0.00147   0.01051   0.00308   0.00014
  38        2PX         0.00104  -0.00327  -0.00003   0.00150  -0.00170
  39        2PY        -0.01055   0.00094   0.01912   0.00116   0.00331
  40        2PZ         0.00309   0.00146  -0.00124  -0.00025  -0.00434
  41        3S          0.00014  -0.00183  -0.00324  -0.00433  -0.00069
  42        3PX        -0.00252   0.00689   0.00020  -0.00288   0.00261
  43        3PY         0.02203  -0.00232  -0.04080  -0.00324  -0.01592
  44        3PZ        -0.00729  -0.00275   0.00293   0.00117   0.00721
  45        4S          0.00596  -0.00413  -0.05538  -0.00736  -0.01356
  46        4PX        -0.00048   0.01175  -0.00270  -0.00687   0.00053
  47        4PY         0.01919  -0.00308  -0.07311  -0.00316  -0.01778
  48        4PZ        -0.00215  -0.00685  -0.00222  -0.00209   0.00219
  49 5   Cl 1S          0.00025  -0.00067  -0.00035   0.00144   0.00093
  50        2S         -0.00246   0.00431   0.00282  -0.00978   0.00014
  51        2PX        -0.00004  -0.00117  -0.00021  -0.00410  -0.00232
  52        2PY        -0.00762   0.00100   0.00396  -0.00976   0.00499
  53        2PZ         0.00800  -0.00536  -0.00785   0.01280  -0.00152
  54        3S          0.00014  -0.00367   0.00175   0.00401  -0.00069
  55        3PX        -0.00050   0.00262   0.00022   0.00841   0.00171
  56        3PY         0.01655  -0.00288  -0.00793   0.02124  -0.01346
  57        3PZ        -0.01645   0.01165   0.01631  -0.02742   0.01132
  58        4S          0.00596  -0.01654  -0.02173   0.04892  -0.01356
  59        4PX         0.00248   0.00207  -0.00027   0.02019  -0.00216
  60        4PY         0.01117  -0.00075  -0.01485   0.03187  -0.01050
  61        4PZ        -0.01557   0.02069   0.03112  -0.05067   0.01436
                          16        17        18        19        20
  16        3PX         0.72719
  17        3PY         0.02819   0.61923
  18        3PZ        -0.01838   0.07492   0.68525
  19        4S         -0.03197   0.13028  -0.08497   0.72965
  20        4PX         0.61297   0.03692  -0.02408  -0.01058   0.53977
  21        4PY         0.03692   0.47158   0.09812   0.04311   0.03593
  22        4PZ        -0.02408   0.09812   0.55804  -0.02811  -0.02343
  23 3   Cl 1S         -0.00287   0.00040  -0.00087  -0.00107  -0.00166
  24        2S          0.02107  -0.00586   0.00815   0.00596   0.01535
  25        2PX        -0.02061   0.01160  -0.01326  -0.03457  -0.03659
  26        2PY         0.01722  -0.00892   0.01395   0.03406   0.02437
  27        2PZ        -0.01662   0.01271  -0.00321  -0.02799  -0.02587
  28        3S         -0.01662   0.00277  -0.00532  -0.01356  -0.01436
  29        3PX         0.04632  -0.02694   0.02994   0.05719   0.07525
  30        3PY        -0.04276   0.01887  -0.03051  -0.08026  -0.04800
  31        3PZ         0.03940  -0.02702   0.00848   0.06061   0.05315
  32        4S         -0.10215   0.03365  -0.04265   0.03004  -0.07337
  33        4PX         0.09187  -0.03908   0.05148   0.02321   0.10174
  34        4PY        -0.04533   0.03254  -0.05074  -0.06053  -0.04786
  35        4PZ         0.05522  -0.04936   0.00612   0.04132   0.06115
  36 4   Cl 1S          0.00059   0.00267   0.00131  -0.00107  -0.00011
  37        2S         -0.00341  -0.02192  -0.00726   0.00596  -0.00126
  38        2PX         0.00690   0.00039  -0.00287  -0.00189   0.01184
  39        2PY        -0.00213  -0.04081  -0.00277   0.05550  -0.00075
  40        2PZ        -0.00274   0.00340   0.00117  -0.00741  -0.00674
[...]
  55        3PX         0.00006  -0.00038  -0.00000   0.00000   0.00000
  56        3PY        -0.00037  -0.00196  -0.00000   0.00000   0.00000
  57        3PZ        -0.00182  -0.00365   0.00000   0.00000   0.00000
  58        4S         -0.00041  -0.00746  -0.00000   0.00001   0.00003
  59        4PX         0.00063  -0.00264  -0.00000   0.00008   0.00014
  60        4PY        -0.00115  -0.01062  -0.00000   0.00000   0.00000
  61        4PZ        -0.00910  -0.01939  -0.00000   0.00001   0.00003
                          26        27        28        29        30
  26        2PY         2.05237
  27        2PZ         0.00000   2.05049
  28        3S          0.00000   0.00000   0.72100
  29        3PX         0.00000   0.00000   0.00000   0.57227
  30        3PY        -0.05739   0.00000   0.00000   0.00000   0.73404
  31        3PZ         0.00000  -0.05604   0.00000   0.00000   0.00000
  32        4S          0.00000   0.00000   0.51286   0.00000   0.00000
  33        4PX         0.00000   0.00000   0.00000   0.25543   0.00000
  34        4PY        -0.02380   0.00000   0.00000   0.00000   0.38739
  35        4PZ         0.00000  -0.02349   0.00000   0.00000   0.00000
  36 4   Cl 1S          0.00000   0.00000   0.00000  -0.00000  -0.00000
  37        2S          0.00000   0.00000   0.00000   0.00000   0.00000
  38        2PX         0.00000   0.00000   0.00000   0.00000   0.00000
  39        2PY         0.00000   0.00000  -0.00000   0.00000   0.00000
  40        2PZ         0.00000   0.00000   0.00000   0.00000   0.00000
  41        3S          0.00000   0.00000  -0.00000  -0.00000  -0.00000
  42        3PX         0.00000   0.00000  -0.00001  -0.00003  -0.00002
  43        3PY         0.00000   0.00000  -0.00000  -0.00001  -0.00000
  44        3PZ         0.00000   0.00000  -0.00000  -0.00001  -0.00001
  45        4S          0.00001   0.00001  -0.00015  -0.00077  -0.00065
  46        4PX         0.00003   0.00003  -0.00042  -0.00219  -0.00107
  47        4PY         0.00001   0.00002  -0.00013  -0.00093  -0.00033
  48        4PZ         0.00002   0.00000  -0.00014  -0.00114  -0.00082
  49 5   Cl 1S          0.00000   0.00000   0.00000  -0.00000  -0.00000
  50        2S          0.00000   0.00000   0.00000   0.00000   0.00000
  51        2PX         0.00000   0.00000   0.00000   0.00000   0.00000
  52        2PY         0.00000   0.00000   0.00000   0.00000   0.00000
  53        2PZ         0.00000   0.00000  -0.00000   0.00000   0.00000
  54        3S          0.00000   0.00000  -0.00000  -0.00000  -0.00000
  55        3PX         0.00000   0.00000  -0.00001  -0.00008  -0.00000
  56        3PY         0.00000   0.00000  -0.00000  -0.00000  -0.00000
  57        3PZ         0.00000   0.00000   0.00000  -0.00001  -0.00000
  58        4S          0.00000   0.00001  -0.00015  -0.00144  -0.00000
  59        4PX         0.00000   0.00003  -0.00063  -0.00588  -0.00000
  60        4PY         0.00000   0.00000  -0.00000  -0.00000  -0.00025
  61        4PZ         0.00000   0.00000  -0.00007  -0.00108  -0.00000
                          31        32        33        34        35
  31        3PZ         0.72535
  32        4S          0.00000   0.72965
  33        4PX         0.00000   0.00000   0.34229
  34        4PY         0.00000   0.00000   0.00000   0.54851
  35        4PZ         0.38030   0.00000   0.00000   0.00000   0.53743
  36 4   Cl 1S         -0.00000  -0.00000  -0.00000  -0.00000  -0.00000
  37        2S          0.00000   0.00001   0.00004   0.00002   0.00002
  38        2PX         0.00000   0.00002   0.00006   0.00002   0.00003
  39        2PY         0.00000   0.00001   0.00002   0.00001   0.00001
  40        2PZ         0.00000   0.00001   0.00003   0.00001   0.00000
  41        3S         -0.00000  -0.00015  -0.00034  -0.00020  -0.00016
  42        3PX        -0.00002  -0.00132  -0.00264  -0.00098  -0.00126
  43        3PY        -0.00001  -0.00025  -0.00084  -0.00023  -0.00068
  44        3PZ        -0.00000  -0.00034  -0.00118  -0.00070  -0.00004
  45        4S         -0.00049   0.00166  -0.00252  -0.00384  -0.00255
  46        4PX        -0.00122  -0.00723  -0.01257  -0.00524  -0.00701
  47        4PY        -0.00079  -0.00036  -0.00375  -0.00095  -0.00451
  48        4PZ        -0.00007  -0.00131  -0.00617  -0.00474  -0.00009
  49 5   Cl 1S         -0.00000  -0.00000  -0.00000  -0.00000  -0.00000
  50        2S          0.00000   0.00001   0.00007   0.00000   0.00002
  51        2PX         0.00000   0.00003   0.00015   0.00000   0.00002
  52        2PY         0.00000   0.00000   0.00000   0.00000   0.00000
  53        2PZ         0.00000   0.00000   0.00002   0.00000   0.00000
  54        3S         -0.00000  -0.00015  -0.00056  -0.00000  -0.00013
  55        3PX        -0.00002  -0.00184  -0.00646  -0.00000  -0.00097
  56        3PY        -0.00000  -0.00000  -0.00000  -0.00025  -0.00000
  57        3PZ        -0.00000  -0.00007  -0.00080  -0.00000  -0.00006
  58        4S         -0.00048   0.00166  -0.00589  -0.00000  -0.00301
  59        4PX        -0.00124  -0.00937  -0.03269  -0.00002  -0.00603
  60        4PY        -0.00000  -0.00000  -0.00002  -0.00251  -0.00000
  61        4PZ        -0.00008   0.00047  -0.00430  -0.00000   0.00053
                          36        37        38        39        40
  36 4   Cl 1S          2.14404
  37        2S         -0.14859   2.38532
  38        2PX         0.00000   0.00000   2.05035
  39        2PY         0.00000   0.00000   0.00000   2.02795
  40        2PZ         0.00000   0.00000   0.00000   0.00000   2.04181
  41        3S         -0.00194  -0.11691   0.00000   0.00000   0.00000
  42        3PX         0.00000   0.00000  -0.05594   0.00000   0.00000
  43        3PY         0.00000   0.00000   0.00000  -0.03991   0.00000
  44        3PZ         0.00000   0.00000   0.00000   0.00000  -0.04983
  45        4S          0.00567  -0.17298   0.00000   0.00000   0.00000
  46        4PX         0.00000   0.00000  -0.02347   0.00000   0.00000
  47        4PY         0.00000   0.00000   0.00000  -0.01979   0.00000
  48        4PZ         0.00000   0.00000   0.00000   0.00000  -0.02207
  49 5   Cl 1S          0.00000   0.00000   0.00000   0.00000   0.00000
  50        2S          0.00000   0.00000   0.00000   0.00000   0.00000
  51        2PX         0.00000   0.00000   0.00000   0.00000   0.00000
  52        2PY         0.00000   0.00000   0.00000   0.00000   0.00000
  53        2PZ         0.00000   0.00000   0.00000   0.00000   0.00000
  54        3S          0.00000   0.00000   0.00000  -0.00000   0.00000
  55        3PX         0.00000  -0.00000  -0.00000  -0.00000   0.00000
  56        3PY        -0.00000   0.00000   0.00000   0.00000   0.00000
  57        3PZ        -0.00000   0.00000   0.00000   0.00000   0.00000
  58        4S         -0.00000   0.00001   0.00000   0.00001   0.00003
  59        4PX        -0.00000   0.00000   0.00000  -0.00000   0.00001
  60        4PY        -0.00000   0.00003   0.00000   0.00001   0.00004
  61        4PZ        -0.00000   0.00006   0.00001   0.00004   0.00009
                          41        42        43        44        45
  41        3S          0.72100
  42        3PX         0.00000   0.72473
  43        3PY         0.00000   0.00000   0.62153
  44        3PZ         0.00000   0.00000   0.00000   0.68540
  45        4S          0.51286   0.00000   0.00000   0.00000   0.72965
  46        4PX         0.00000   0.37979   0.00000   0.00000   0.00000
  47        4PY         0.00000   0.00000   0.29561   0.00000   0.00000
  48        4PZ         0.00000   0.00000   0.00000   0.34771   0.00000
  49 5   Cl 1S          0.00000  -0.00000  -0.00000  -0.00000  -0.00000
  50        2S          0.00000   0.00000   0.00000   0.00000   0.00001
  51        2PX        -0.00000  -0.00000  -0.00000   0.00000   0.00000
  52        2PY         0.00000   0.00000   0.00000   0.00000   0.00001
  53        2PZ         0.00000   0.00000   0.00000   0.00000   0.00002
  54        3S         -0.00000  -0.00000  -0.00000  -0.00001  -0.00015
  55        3PX         0.00000  -0.00000  -0.00000  -0.00000   0.00001
  56        3PY        -0.00000  -0.00000  -0.00000  -0.00003  -0.00069
  57        3PZ        -0.00000  -0.00001  -0.00002  -0.00005  -0.00123
  58        4S         -0.00015  -0.00014  -0.00028  -0.00149   0.00166
  59        4PX        -0.00001  -0.00002   0.00004  -0.00042   0.00031
  60        4PY        -0.00021   0.00002  -0.00028  -0.00183  -0.00400
  61        4PZ        -0.00047  -0.00046  -0.00168  -0.00394  -0.00521
                          46        47        48        49        50
  46        4PX         0.53664
  47        4PY         0.00000   0.40508
  48        4PZ         0.00000   0.00000   0.48650
  49 5   Cl 1S         -0.00000  -0.00000  -0.00000   2.14404
  50        2S          0.00000   0.00002   0.00006  -0.14859   2.38532
  51        2PX         0.00000  -0.00000   0.00001   0.00000   0.00000
  52        2PY        -0.00000   0.00001   0.00004   0.00000   0.00000
  53        2PZ         0.00001   0.00004   0.00009   0.00000   0.00000
  54        3S         -0.00004  -0.00014  -0.00051  -0.00194  -0.11691
  55        3PX        -0.00004   0.00007  -0.00031   0.00000   0.00000
  56        3PY         0.00004  -0.00039  -0.00204   0.00000   0.00000
  57        3PZ        -0.00035  -0.00189  -0.00364   0.00000   0.00000
  58        4S         -0.00093  -0.00052  -0.00745   0.00567  -0.17298
  59        4PX        -0.00008   0.00064  -0.00222   0.00000   0.00000
  60        4PY         0.00043  -0.00126  -0.01107   0.00000   0.00000
  61        4PZ        -0.00261  -0.00956  -0.01933   0.00000   0.00000
                          51        52        53        54        55
  51        2PX         2.04166
  52        2PY         0.00000   2.05238
  53        2PZ         0.00000   0.00000   2.02607
  54        3S          0.00000   0.00000   0.00000   0.72100
  55        3PX        -0.04972   0.00000   0.00000   0.00000   0.68469
  56        3PY         0.00000  -0.05739   0.00000   0.00000   0.00000
  57        3PZ         0.00000   0.00000  -0.03856   0.00000   0.00000
  58        4S          0.00000   0.00000   0.00000   0.51286   0.00000
  59        4PX        -0.02204   0.00000   0.00000   0.00000   0.34713
  60        4PY         0.00000  -0.02380   0.00000   0.00000   0.00000
  61        4PZ         0.00000   0.00000  -0.01948   0.00000   0.00000
                          56        57        58        59        60
  56        3PY         0.73409
  57        3PZ         0.00000   0.61289
  58        4S          0.00000   0.00000   0.72965
  59        4PX         0.00000   0.00000   0.00000   0.48560
  60        4PY         0.38742   0.00000   0.00000   0.00000   0.54856
  61        4PZ         0.00000   0.28856   0.00000   0.00000   0.00000
                          61
  61        4PZ         0.39407
     Gross orbital populations:
                           1
   1 1   B  1S          1.99051
   2        2S          0.33117
   3        2PX         0.36765
   4        2PY         0.36765
   5        2PZ         0.36765
   6        3S          0.83342
   7        3PX         0.20905
   8        3PY         0.20905
   9        3PZ         0.20905
  10 2   Cl 1S          1.99862
  11        2S          1.95934
  12        2PX         1.97067
  13        2PY         1.96626
  14        2PZ         1.96896
  15        3S          1.10380
  16        3PX         1.06501
  17        3PY         0.94336
  18        3PZ         1.01775
  19        4S          0.89737
  20        4PX         0.89043
  21        4PY         0.68608
  22        4PZ         0.81104
  23 3   Cl 1S          1.99862
  24        2S          1.95934
  25        2PX         1.96435
  26        2PY         1.97095
  27        2PZ         1.97059
  28        3S          1.10380
  29        3PX         0.89046
  30        3PY         1.07273
  31        3PZ         1.06294
  32        4S          0.89737
  33        4PX         0.59720
  34        4PY         0.90340
  35        4PZ         0.88695
  36 4   Cl 1S          1.99862
  37        2S          1.95934
  38        2PX         1.97057
  39        2PY         1.96636
  40        2PZ         1.96896
  41        3S          1.10380
  42        3PX         1.06224
  43        3PY         0.94596
  44        3PZ         1.01793
  45        4S          0.89737
  46        4PX         0.88578
  47        4PY         0.69044
  48        4PZ         0.81133
  49 5   Cl 1S          1.99862
  50        2S          1.95934
  51        2PX         1.96893
  52        2PY         1.97095
  53        2PZ         1.96601
  54        3S          1.10380
  55        3PX         1.01713
  56        3PY         1.07278
  57        3PZ         0.93622
  58        4S          0.89737
  59        4PX         0.80999
  60        4PY         0.90348
  61        4PZ         0.67408
          Condensed to atoms (all electrons):
               1          2          3          4          5
     1  B    4.132799   0.188102   0.188102   0.188102   0.188102
     2  Cl   0.188102  17.340452  -0.083285  -0.083285  -0.083285
     3  Cl   0.188102  -0.083285  17.340452  -0.083285  -0.083285
     4  Cl   0.188102  -0.083285  -0.083285  17.340453  -0.083285
     5  Cl   0.188102  -0.083285  -0.083285  -0.083285  17.340452
 Mulliken charges:
               1
     1  B    0.114794
     2  Cl  -0.278698
     3  Cl  -0.278699
     4  Cl  -0.278698
     5  Cl  -0.278699
 Sum of Mulliken charges =  -1.00000
 Mulliken charges with hydrogens summed into heavy atoms:
               1
     1  B    0.114794
     2  Cl  -0.278698
     3  Cl  -0.278699
     4  Cl  -0.278698
     5  Cl  -0.278699
 Electronic spatial extent (au):  <R**2>=           1042.4361
 Charge=             -1.0000 electrons
 Dipole moment (field-independent basis, Debye):
    X=             -0.0000    Y=              0.0000    Z=             -0.0000  Tot=              0.0000
 Quadrupole moment (field-independent basis, Debye-Ang):
   XX=            -69.8179   YY=            -69.8179   ZZ=            -69.8179
   XY=              0.0000   XZ=              0.0000   YZ=              0.0000
 Traceless Quadrupole moment (field-independent basis, Debye-Ang):
   XX=             -0.0000   YY=              0.0000   ZZ=              0.0000
   XY=              0.0000   XZ=              0.0000   YZ=              0.0000
 Octapole moment (field-independent basis, Debye-Ang**2):
  XXX=             -8.7638  YYY=             -0.1938  ZZZ=             -3.5754  XYY=              3.4020
  XXY=              0.3131  XXZ=             -4.7869  XZZ=              5.3618  YZZ=             -0.1192
  YYZ=              8.3622  XYZ=              0.2674
 Hexadecapole moment (field-independent basis, Debye-Ang**3):
 XXXX=           -485.0548 YYYY=           -483.6991 ZZZZ=           -480.7337 XXXY=              0.2194
 XXXZ=             -1.2137 YYYX=             -0.1958 YYYZ=              0.1267 ZZZX=              3.3271
 ZZZY=             -0.0640 XXYY=           -158.0704 XXZZ=           -161.0358 YYZZ=           -162.3911
 XXYZ=             -0.0626 YYXZ=             -2.1133 ZZXY=             -0.0235
 N-N= 3.882091737586D+02 E-N=-5.205561291759D+03  KE= 1.852659258086D+03
 Orbital energies and kinetic energies (alpha):
                                 1                 2
   1         O              -103.928540        136.078010
   2         O              -103.928540        136.078010
   3         O              -103.928540        136.078010
   4         O              -103.928166        136.087285
   5         O               -10.323246         22.343070
   6         O               -10.323246         22.343070
   7         O               -10.323246         22.343070
   8         O               -10.322060         22.372860
   9         O                -7.786519         20.332127
  10         O                -7.786519         20.332127
  11         O                -7.786519         20.332127
  12         O                -7.786274         20.346008
  13         O                -7.783087         20.358289
  14         O                -7.783087         20.358289
  15         O                -7.783087         20.358289
  16         O                -7.782861         20.368530
  17         O                -7.782861         20.368530
  18         O                -7.782861         20.368530
  19         O                -7.782786         20.372746
  20         O                -7.782786         20.372746
  21         O                -7.584461         10.828572
  22         O                -0.981004          2.501461
  23         O                -0.911224          2.943650
  24         O                -0.911224          2.943650
  25         O                -0.911224          2.943650
  26         O                -0.516517          2.114811
  27         O                -0.399432          1.892804
  28         O                -0.399432          1.892803
  29         O                -0.399432          1.892803
  30         O                -0.319598          2.110614
  31         O                -0.319598          2.110615
  32         O                -0.284239          2.311491
  33         O                -0.284239          2.311491
  34         O                -0.284239          2.311492
  35         O                -0.270066          2.409334
  36         O                -0.270066          2.409334
  37         O                -0.270066          2.409334
  38         V                 0.352409          2.542082
  39         V                 0.387767          1.613198
  40         V                 0.387767          1.613198
  41         V                 0.387767          1.613198
  42         V                 0.806606          2.815243
  43         V                 0.814569          2.372783
  44         V                 0.814569          2.372784
  45         V                 0.814569          2.372785
  46         V                 0.928933          3.211427
  47         V                 0.928933          3.211428
  48         V                 0.928933          3.211428
  49         V                 0.930051          3.653307
  50         V                 0.940764          3.583024
  51         V                 0.940764          3.583024
  52         V                 0.976669          3.055587
  53         V                 0.976669          3.055589
  54         V                 0.976669          3.055588
  55         V                 1.078511          3.588746
  56         V                 1.078511          3.588745
  57         V                 1.078511          3.588746
  58         V                 1.226100          3.738717
  59         V                 1.226100          3.738717
  60         V                 1.226100          3.738717
  61         V                 1.680538          2.264083
 Total kinetic energy from orbitals= 1.852659258086D+03
 1\1\GINC-IISERK51\SP\RHF\3-21G\ \GAUSSIAN\16-Jun-2025\0\\# hf/3-21g po
 p=full geom=connectivity\\BCl4- sp\\-1,1\B,0,0.,0.,0.\Cl,0,-0.384703,1
 .56782,-1.022489\Cl,0,1.860856,-0.037457,0.432844\Cl,0,-0.44788,-1.552
 027,-1.02086\Cl,0,-1.028273,0.021663,1.610505\\Version=EM64L-G16RevB.0
 1\HF=-1853.9727346\RMSD=6.438e-09\Dipole=-0.0000006,0.0000004,-0.00000
 06\Quadrupole=-0.0000046,0.0000028,0.0000018,0.0000007,0.0000013,0.000
 0008\PG=Unknown\\@


    UPON JULIA'S CLOTHES

 WHENAS IN SILKS MY JULIA GOES,
 THEN, THEN, METHINKS, HOW SWEETLY FLOWS
 THAT LIQUEFACTION OF HER CLOTHES.

 NEXT, WHEN I CAST MINE EYES, AND SEE
 THAT BRAVE VIBRATION, EACH WAY FREE,
 O, HOW THAT GLITTERING TAKETH ME!
     -- ROBERT HERRICK, 1648
 Job cpu time:       0 days  0 hours  0 minutes  0.5 seconds.
 Elapsed time:       0 days  0 hours  0 minutes  0.5 seconds.
 File lengths (MBytes):  RWF=      6 Int=      0 D2E=      0 Chk=      1 Scr=      1
 Normal termination of Gaussian 16 at Mon Jun 16 21:18:06 2025.
