 Entering Gaussian System, Link 0=g16
 Input=/home/gaussian/Documents/jeeva/Aromaticity/napthalene/AM1/Napthal_opt_AM1.com
 Output=/home/gaussian/Documents/jeeva/Aromaticity/napthalene/AM1/Napthal_opt_AM1.log
 Initial command:
 /usr/local/g16/l1.exe "/home/gaussian/tmp/Gau-93225.inp" -scrdir="/home/gaussian/tmp/"
 Entering Link 1 = /usr/local/g16/l1.exe PID=     93228.
  
 Copyright (c) 1988-2017, Gaussian, Inc.  All Rights Reserved.
  
 This is part of the Gaussian(R) 16 program.  It is based on
 the Gaussian(R) 09 system (copyright 2009, Gaussian, Inc.),
 the Gaussian(R) 03 system (copyright 2003, Gaussian, Inc.),
 the Gaussian(R) 98 system (copyright 1998, Gaussian, Inc.),
 the Gaussian(R) 94 system (copyright 1995, Gaussian, Inc.),
 the Gaussian 92(TM) system (copyright 1992, Gaussian, Inc.),
 the Gaussian 90(TM) system (copyright 1990, Gaussian, Inc.),
 the Gaussian 88(TM) system (copyright 1988, Gaussian, Inc.),
 the Gaussian 86(TM) system (copyright 1986, Carnegie Mellon
 University), and the Gaussian 82(TM) system (copyright 1983,
 Carnegie Mellon University). Gaussian is a federally registered
 trademark of Gaussian, Inc.
  
 This software contains proprietary and confidential information,
 including trade secrets, belonging to Gaussian, Inc.
  
 This software is provided under written license and may be
 used, copied, transmitted, or stored only in accord with that
 written license.
  
 The following legend is applicable only to US Government
 contracts under FAR:
  
                    RESTRICTED RIGHTS LEGEND
  
 Use, reproduction and disclosure by the US Government is
 subject to restrictions as set forth in subparagraphs (a)
 and (c) of the Commercial Computer Software - Restricted
 Rights clause in FAR 52.227-19.
  
 Gaussian, Inc.
 340 Quinnipiac St., Bldg. 40, Wallingford CT 06492
  
  
 ---------------------------------------------------------------
 Warning -- This program may not be used in any manner that
 competes with the business of Gaussian, Inc. or will provide
 assistance to any competitor of Gaussian, Inc.  The licensee
 of this program is prohibited from giving any competitor of
 Gaussian, Inc. access to this program.  By using this program,
 the user acknowledges that Gaussian, Inc. is engaged in the
 business of creating and licensing software in the field of
 computational chemistry and represents and warrants to the
 licensee that it is not a competitor of Gaussian, Inc. and that
 it will not use this program in any manner prohibited above.
 ---------------------------------------------------------------
  

 Cite this work as:
 Gaussian 16, Revision B.01,
 M. J. Frisch, G. W. Trucks, H. B. Schlegel, G. E. Scuseria, 
 M. A. Robb, J. R. Cheeseman, G. Scalmani, V. Barone, 
 G. A. Petersson, H. Nakatsuji, X. Li, M. Caricato, A. V. Marenich, 
 J. Bloino, B. G. Janesko, R. Gomperts, B. Mennucci, H. P. Hratchian, 
 J. V. Ortiz, A. F. Izmaylov, J. L. Sonnenberg, D. Williams-Young, 
 F. Ding, F. Lipparini, F. Egidi, J. Goings, B. Peng, A. Petrone, 
 T. Henderson, D. Ranasinghe, V. G. Zakrzewski, J. Gao, N. Rega, 
 G. Zheng, W. Liang, M. Hada, M. Ehara, K. Toyota, R. Fukuda, 
 J. Hasegawa, M. Ishida, T. Nakajima, Y. Honda, O. Kitao, H. Nakai, 
 T. Vreven, K. Throssell, J. A. Montgomery, Jr., J. E. Peralta, 
 F. Ogliaro, M. J. Bearpark, J. J. Heyd, E. N. Brothers, K. N. Kudin, 
 V. N. Staroverov, T. A. Keith, R. Kobayashi, J. Normand, 
 K. Raghavachari, A. P. Rendell, J. C. Burant, S. S. Iyengar, 
 J. Tomasi, M. Cossi, J. M. Millam, M. Klene, C. Adamo, R. Cammi, 
 J. W. Ochterski, R. L. Martin, K. Morokuma, O. Farkas, 
 J. B. Foresman, and D. J. Fox, Gaussian, Inc., Wallingford CT, 2016.
 
 ******************************************
 Gaussian 16:  EM64L-G16RevB.01 20-Dec-2017
                 9-Jun-2025 
 ******************************************
 %chk=Napthal_opt_AM1.chk
 ---------------------------
 # opt am1 geom=connectivity
 ---------------------------
 1/18=20,19=15,26=1,38=1,57=2/1,3;
 2/9=110,12=2,17=6,18=5,40=1/2;
 3/5=2,25=1,41=700000,71=1/1,2,3;
 4/35=1/1;
 5/5=2,35=1,38=5/2;
 6/7=2,8=2,9=2,10=2,28=1/1;
 7//1,2,3,16;
 1/18=20,19=15,26=1/3(2);
 2/9=110/2;
 99//99;
 2/9=110/2;
 3/5=2,25=1,41=700000,71=1,135=20/1,2,3;
 4/5=5,16=3,35=1/1;
 5/5=2,35=1,38=5/2;
 7//1,2,3,16;
 1/18=20,19=15,26=1/3(-5);
 2/9=110/2;
 6/7=2,8=2,9=2,10=2,19=2,28=1/1;
 99/9=1/99;
 -------------------------------------------------
 Methyl_Napthalene Optimisation AM1 semi-emperical
 -------------------------------------------------
 Symbolic Z-matrix:
 Charge =  0 Multiplicity = 1
 C                    -0.00528  -0.39189  -0.01336 
 C                    -0.94007  -1.43602  -0.00798 
 C                    -0.44259   0.93959  -0.00311 
 C                    -2.31168  -1.14885   0.002 
 H                    -0.60644  -2.45268  -0.01192 
 C                     1.36635  -0.6807   -0.03007 
 C                     0.49145   1.98381   0.00109 
 C                    -1.81424   1.22677   0.004 
 C                    -2.74879   0.18256   0.00653 
 H                    -3.0252   -1.9462    0.00594 
 C                     1.84631  -2.14325   0.01672 
 C                     2.29962   0.36487  -0.00219 
 C                     1.86264   1.69636   0.00526 
 H                     0.15772   3.00043   0.00241 
 H                    -2.14795   2.24339   0.00795 
 H                    -3.79606   0.40185   0.01213 
 H                     2.91592  -2.1673    0.03221 
 H                     1.49034  -2.66329  -0.848 
 H                     1.46613  -2.61535   0.89848 
 H                     3.3469    0.14608   0.01277 
 H                     2.5763    2.49354   0.01477 
 

 GradGradGradGradGradGradGradGradGradGradGradGradGradGradGradGradGradGrad
 Berny optimization.
 Initialization pass.
                           ----------------------------
                           !    Initial Parameters    !
                           ! (Angstroms and Degrees)  !
 --------------------------                            --------------------------
 ! Name  Definition              Value          Derivative Info.                !
 --------------------------------------------------------------------------------
 ! R1    R(1,2)                  1.4015         estimate D2E/DX2                !
 ! R2    R(1,3)                  1.4015         estimate D2E/DX2                !
 ! R3    R(1,6)                  1.4018         estimate D2E/DX2                !
 ! R4    R(2,4)                  1.4014         estimate D2E/DX2                !
 ! R5    R(2,5)                  1.07           estimate D2E/DX2                !
 ! R6    R(3,7)                  1.401          estimate D2E/DX2                !
 ! R7    R(3,8)                  1.4014         estimate D2E/DX2                !
 ! R8    R(4,9)                  1.4013         estimate D2E/DX2                !
 ! R9    R(4,10)                 1.07           estimate D2E/DX2                !
 ! R10   R(6,11)                 1.54           estimate D2E/DX2                !
 ! R11   R(6,12)                 1.4018         estimate D2E/DX2                !
 ! R12   R(7,13)                 1.401          estimate D2E/DX2                !
 ! R13   R(7,14)                 1.07           estimate D2E/DX2                !
 ! R14   R(8,9)                  1.4013         estimate D2E/DX2                !
 ! R15   R(8,15)                 1.07           estimate D2E/DX2                !
 ! R16   R(9,16)                 1.07           estimate D2E/DX2                !
 ! R17   R(11,17)                1.07           estimate D2E/DX2                !
 ! R18   R(11,18)                1.07           estimate D2E/DX2                !
 ! R19   R(11,19)                1.07           estimate D2E/DX2                !
 ! R20   R(12,13)                1.4014         estimate D2E/DX2                !
 ! R21   R(12,20)                1.07           estimate D2E/DX2                !
 ! R22   R(13,21)                1.07           estimate D2E/DX2                !
 ! A1    A(2,1,3)              119.9773         estimate D2E/DX2                !
 ! A2    A(2,1,6)              119.947          estimate D2E/DX2                !
 ! A3    A(3,1,6)              120.0757         estimate D2E/DX2                !
 ! A4    A(1,2,4)              120.0127         estimate D2E/DX2                !
 ! A5    A(1,2,5)              119.9937         estimate D2E/DX2                !
 ! A6    A(4,2,5)              119.9936         estimate D2E/DX2                !
 ! A7    A(1,3,7)              120.0057         estimate D2E/DX2                !
 ! A8    A(1,3,8)              120.0087         estimate D2E/DX2                !
 ! A9    A(7,3,8)              119.9856         estimate D2E/DX2                !
 ! A10   A(2,4,9)              120.001          estimate D2E/DX2                !
 ! A11   A(2,4,10)             119.9995         estimate D2E/DX2                !
 ! A12   A(9,4,10)             119.9995         estimate D2E/DX2                !
 ! A13   A(1,6,11)             120.0171         estimate D2E/DX2                !
 ! A14   A(1,6,12)             119.8367         estimate D2E/DX2                !
 ! A15   A(11,6,12)            120.0182         estimate D2E/DX2                !
 ! A16   A(3,7,13)             119.9728         estimate D2E/DX2                !
 ! A17   A(3,7,14)             120.0136         estimate D2E/DX2                !
 ! A18   A(13,7,14)            120.0136         estimate D2E/DX2                !
 ! A19   A(3,8,9)              120.0031         estimate D2E/DX2                !
 ! A20   A(3,8,15)             119.9985         estimate D2E/DX2                !
 ! A21   A(9,8,15)             119.9984         estimate D2E/DX2                !
 ! A22   A(4,9,8)              119.9962         estimate D2E/DX2                !
 ! A23   A(4,9,16)             120.0019         estimate D2E/DX2                !
 ! A24   A(8,9,16)             120.0019         estimate D2E/DX2                !
 ! A25   A(6,11,17)            109.4712         estimate D2E/DX2                !
 ! A26   A(6,11,18)            109.4712         estimate D2E/DX2                !
 ! A27   A(6,11,19)            109.4712         estimate D2E/DX2                !
 ! A28   A(17,11,18)           109.4712         estimate D2E/DX2                !
 ! A29   A(17,11,19)           109.4712         estimate D2E/DX2                !
 ! A30   A(18,11,19)           109.4712         estimate D2E/DX2                !
 ! A31   A(6,12,13)            120.0792         estimate D2E/DX2                !
 ! A32   A(6,12,20)            119.9604         estimate D2E/DX2                !
 ! A33   A(13,12,20)           119.9605         estimate D2E/DX2                !
 ! A34   A(7,13,12)            120.0071         estimate D2E/DX2                !
 ! A35   A(7,13,21)            119.9964         estimate D2E/DX2                !
 ! A36   A(12,13,21)           119.9965         estimate D2E/DX2                !
 ! D1    D(3,1,2,4)              0.2666         estimate D2E/DX2                !
 ! D2    D(3,1,2,5)           -179.7602         estimate D2E/DX2                !
 ! D3    D(6,1,2,4)           -179.6824         estimate D2E/DX2                !
 ! D4    D(6,1,2,5)              0.2908         estimate D2E/DX2                !
 ! D5    D(2,1,3,7)            179.5477         estimate D2E/DX2                !
 ! D6    D(2,1,3,8)             -0.4016         estimate D2E/DX2                !
 ! D7    D(6,1,3,7)             -0.5033         estimate D2E/DX2                !
 ! D8    D(6,1,3,8)            179.5474         estimate D2E/DX2                !
 ! D9    D(2,1,6,11)            -2.5456         estimate D2E/DX2                !
 ! D10   D(2,1,6,12)          -178.4338         estimate D2E/DX2                !
 ! D11   D(3,1,6,11)           177.5054         estimate D2E/DX2                !
 ! D12   D(3,1,6,12)             1.6173         estimate D2E/DX2                !
 ! D13   D(1,2,4,9)              0.0031         estimate D2E/DX2                !
 ! D14   D(1,2,4,10)           179.9897         estimate D2E/DX2                !
 ! D15   D(5,2,4,9)           -179.97           estimate D2E/DX2                !
 ! D16   D(5,2,4,10)             0.0166         estimate D2E/DX2                !
 ! D17   D(1,3,7,13)            -0.482          estimate D2E/DX2                !
 ! D18   D(1,3,7,14)           179.5977         estimate D2E/DX2                !
 ! D19   D(8,3,7,13)           179.4673         estimate D2E/DX2                !
 ! D20   D(8,3,7,14)            -0.4529         estimate D2E/DX2                !
 ! D21   D(1,3,8,9)              0.2668         estimate D2E/DX2                !
 ! D22   D(1,3,8,15)          -179.7601         estimate D2E/DX2                !
 ! D23   D(7,3,8,9)           -179.6826         estimate D2E/DX2                !
 ! D24   D(7,3,8,15)             0.2906         estimate D2E/DX2                !
 ! D25   D(2,4,9,8)             -0.138          estimate D2E/DX2                !
 ! D26   D(2,4,9,16)           179.8754         estimate D2E/DX2                !
 ! D27   D(10,4,9,8)           179.8754         estimate D2E/DX2                !
 ! D28   D(10,4,9,16)           -0.1111         estimate D2E/DX2                !
 ! D29   D(1,6,11,17)         -177.9403         estimate D2E/DX2                !
 ! D30   D(1,6,11,18)           62.0597         estimate D2E/DX2                !
 ! D31   D(1,6,11,19)          -57.9403         estimate D2E/DX2                !
 ! D32   D(12,6,11,17)          -2.0597         estimate D2E/DX2                !
 ! D33   D(12,6,11,18)        -122.0597         estimate D2E/DX2                !
 ! D34   D(12,6,11,19)         117.9403         estimate D2E/DX2                !
 ! D35   D(1,6,12,13)           -1.7497         estimate D2E/DX2                !
 ! D36   D(1,6,12,20)          178.2905         estimate D2E/DX2                !
 ! D37   D(11,6,12,13)        -177.6378         estimate D2E/DX2                !
 ! D38   D(11,6,12,20)           2.4024         estimate D2E/DX2                !
 ! D39   D(3,7,13,12)            0.3498         estimate D2E/DX2                !
 ! D40   D(3,7,13,21)         -179.6104         estimate D2E/DX2                !
 ! D41   D(14,7,13,12)        -179.73           estimate D2E/DX2                !
 ! D42   D(14,7,13,21)           0.3099         estimate D2E/DX2                !
 ! D43   D(3,8,9,4)              0.0031         estimate D2E/DX2                !
 ! D44   D(3,8,9,16)           179.9897         estimate D2E/DX2                !
 ! D45   D(15,8,9,4)          -179.97           estimate D2E/DX2                !
 ! D46   D(15,8,9,16)            0.0166         estimate D2E/DX2                !
 ! D47   D(6,12,13,7)            0.7681         estimate D2E/DX2                !
 ! D48   D(6,12,13,21)        -179.2717         estimate D2E/DX2                !
 ! D49   D(20,12,13,7)        -179.2721         estimate D2E/DX2                !
 ! D50   D(20,12,13,21)          0.6881         estimate D2E/DX2                !
 --------------------------------------------------------------------------------
 Trust Radius=3.00D-01 FncErr=1.00D-07 GrdErr=1.00D-07 EigMax=2.50D+02 EigMin=1.00D-04
 Number of steps in this run=    118 maximum allowed number of steps=    126.
 GradGradGradGradGradGradGradGradGradGradGradGradGradGradGradGradGradGrad

                          Input orientation:                          
 ---------------------------------------------------------------------
 Center     Atomic      Atomic             Coordinates (Angstroms)
 Number     Number       Type             X           Y           Z
 ---------------------------------------------------------------------
      1          6           0       -0.005276   -0.391885   -0.013360
      2          6           0       -0.940066   -1.436024   -0.007978
      3          6           0       -0.442591    0.939589   -0.003114
      4          6           0       -2.311682   -1.148847    0.001997
      5          1           0       -0.606444   -2.452676   -0.011920
      6          6           0        1.366348   -0.680699   -0.030070
      7          6           0        0.491455    1.983811    0.001089
      8          6           0       -1.814240    1.226768    0.004003
      9          6           0       -2.748788    0.182562    0.006525
     10          1           0       -3.025203   -1.946201    0.005937
     11          6           0        1.846306   -2.143249    0.016723
     12          6           0        2.299615    0.364870   -0.002190
     13          6           0        1.862643    1.696359    0.005255
     14          1           0        0.157715    3.000431    0.002407
     15          1           0       -2.147953    2.243390    0.007945
     16          1           0       -3.796062    0.401850    0.012126
     17          1           0        2.915924   -2.167296    0.032205
     18          1           0        1.490337   -2.663285   -0.848001
     19          1           0        1.466135   -2.615351    0.898476
     20          1           0        3.346900    0.146078    0.012774
     21          1           0        2.576304    2.493540    0.014767
 ---------------------------------------------------------------------
                    Distance matrix (angstroms):
                    1          2          3          4          5
     1  C    0.000000
     2  C    1.401459   0.000000
     3  C    1.401489   2.427147   0.000000
     4  C    2.427496   1.401392   2.802694   0.000000
     5  H    2.146686   1.070000   3.396231   2.146625   0.000000
     6  C    1.401801   2.427046   2.428646   3.707843   2.651818
     7  C    2.427114   3.707372   1.401020   4.203704   4.570335
     8  C    2.427486   2.802639   1.401407   2.427139   3.872639
     9  C    2.803078   2.427243   2.427288   1.401333   3.396242
    10  H    3.396502   2.146687   3.872693   1.070000   2.471281
    11  C    2.548830   2.874830   3.839704   4.275268   2.472357
    12  C    2.425969   3.706587   2.801784   4.853393   4.047695
    13  C    2.801827   4.203235   2.426288   5.051752   4.828165
    14  H    3.396266   4.570270   2.146501   4.828502   5.506407
    15  H    3.396497   3.872639   2.146690   3.396192   4.942639
    16  H    3.873076   3.396306   3.396345   2.146659   4.280486
    17  H    3.418709   3.924925   4.575325   5.325976   3.534185
    18  H    2.844775   2.849328   4.175015   4.179877   2.267130
    19  H    2.817853   2.828829   4.134452   4.150447   2.269552
    20  H    3.395169   4.569635   3.871712   5.804869   4.731074
    21  H    3.871825   5.273221   3.395411   6.095864   5.881806
                    6          7          8          9         10
     6  C    0.000000
     7  C    2.804643   0.000000
     8  C    3.708872   2.426798   0.000000
     9  C    4.204867   3.707250   1.401340   0.000000
    10  H    4.570395   5.273699   3.396199   2.146634   0.000000
    11  C    1.540000   4.343787   4.975618   5.150184   4.875504
    12  C    1.401777   2.427020   4.203178   5.051702   5.804722
    13  C    2.428572   1.401001   3.706748   4.853543   6.095841
    14  H    3.874605   1.070000   2.652261   4.048230   5.882189
    15  H    4.571877   2.652150   1.070000   2.146629   4.280449
    16  H    5.274862   4.570068   2.146666   1.070000   2.471357
    17  H    2.148263   4.807360   5.821934   6.132818   5.945297
    18  H    2.148263   4.828480   5.174810   5.176799   4.651185
    19  H    2.148263   4.786188   5.130577   5.137068   4.627797
    20  H    2.146621   3.395728   5.273076   6.095801   6.706816
    21  H    3.397322   2.146301   4.569650   5.804937   7.147605
                   11         12         13         14         15
    11  C    0.000000
    12  C    2.548824   0.000000
    13  C    3.839660   1.401379   0.000000
    14  H    5.413777   3.396165   2.146483   0.000000
    15  H    5.932687   4.828022   4.047731   2.426777   0.000000
    16  H    6.189819   6.095806   5.804889   4.731286   2.471346
    17  H    1.070000   2.606316   4.004742   5.857816   6.715474
    18  H    1.070000   3.246545   4.457932   5.880200   6.168084
    19  H    1.070000   3.222981   4.421076   5.835401   6.120624
    20  H    2.737301   1.070000   2.146264   4.279993   5.881509
    21  H    4.693901   2.146644   1.070000   2.471167   4.730880
                   16         17         18         19         20
    16  H    0.000000
    17  H    7.186909   0.000000
    18  H    6.170971   1.747303   0.000000
    19  H    6.130239   1.747303   1.747303   0.000000
    20  H    7.147540   2.353258   3.475671   3.456478   0.000000
    21  H    6.706879   4.673226   5.340088   5.302281   2.470708
                   21
    21  H    0.000000
 Stoichiometry    C11H10
 Framework group  C1[X(C11H10)]
 Deg. of freedom    57
 Full point group                 C1      NOp   1
 Largest Abelian subgroup         C1      NOp   1
 Largest concise Abelian subgroup C1      NOp   1
                         Standard orientation:                         
 ---------------------------------------------------------------------
 Center     Atomic      Atomic             Coordinates (Angstroms)
 Number     Number       Type             X           Y           Z
 ---------------------------------------------------------------------
      1          6           0        0.005276    0.391885   -0.013360
      2          6           0        0.940066    1.436024   -0.007978
      3          6           0        0.442591   -0.939589   -0.003114
      4          6           0        2.311682    1.148847    0.001997
      5          1           0        0.606444    2.452676   -0.011920
      6          6           0       -1.366348    0.680699   -0.030070
      7          6           0       -0.491455   -1.983811    0.001089
      8          6           0        1.814240   -1.226768    0.004003
      9          6           0        2.748788   -0.182562    0.006525
     10          1           0        3.025203    1.946201    0.005937
     11          6           0       -1.846306    2.143249    0.016723
     12          6           0       -2.299615   -0.364870   -0.002190
     13          6           0       -1.862643   -1.696359    0.005255
     14          1           0       -0.157715   -3.000431    0.002407
     15          1           0        2.147953   -2.243390    0.007945
     16          1           0        3.796062   -0.401850    0.012126
     17          1           0       -2.915924    2.167296    0.032205
     18          1           0       -1.490337    2.663285   -0.848001
     19          1           0       -1.466135    2.615351    0.898476
     20          1           0       -3.346900   -0.146078    0.012774
     21          1           0       -2.576304   -2.493540    0.014767
 ---------------------------------------------------------------------
 Rotational constants (GHZ):           1.8995471           1.1485855           0.7189536
 Standard basis: VSTO-6G (5D, 7F)
 There are    54 symmetry adapted cartesian basis functions of A   symmetry.
 There are    54 symmetry adapted basis functions of A   symmetry.
    54 basis functions,   324 primitive gaussians,    54 cartesian basis functions
    27 alpha electrons       27 beta electrons
       nuclear repulsion energy       300.5379675852 Hartrees.
 Integral buffers will be    131072 words long.
 Regular integral format.
 Two-electron integral symmetry is turned off.
 Do NDO integrals.
 One-electron integrals computed using PRISM.
 NBasis=    54 RedAO= F EigKep=  0.00D+00  NBF=    54
 NBsUse=    54 1.00D-04 EigRej=  0.00D+00 NBFU=    54
 Simple Huckel Guess.
 Keep J ints in memory in canonical form, NReq=866898.
 Overlap will be assumed to be unity.
 Requested convergence on RMS density matrix=1.00D-08 within 128 cycles.
 Requested convergence on MAX density matrix=1.00D-06.
 Requested convergence on             energy=1.00D-06.
 No special actions if energy rises.
 SCF Done:  E(RAM1) =  0.707872076075E-01 A.U. after   16 cycles
            NFock= 15  Conv=0.53D-08     -V/T= 1.0008

 **********************************************************************

            Population analysis using the SCF Density.

 **********************************************************************

 Orbital symmetries:
       Occupied  (A) (A) (A) (A) (A) (A) (A) (A) (A) (A) (A) (A)
                 (A) (A) (A) (A) (A) (A) (A) (A) (A) (A) (A) (A)
                 (A) (A) (A)
       Virtual   (A) (A) (A) (A) (A) (A) (A) (A) (A) (A) (A) (A)
                 (A) (A) (A) (A) (A) (A) (A) (A) (A) (A) (A) (A)
                 (A) (A) (A)
 The electronic state is 1-A.
 Alpha  occ. eigenvalues --   -1.50420  -1.35317  -1.26587  -1.14510  -1.12059
 Alpha  occ. eigenvalues --   -1.01932  -0.89002  -0.86843  -0.79773  -0.67870
 Alpha  occ. eigenvalues --   -0.64626  -0.62364  -0.56751  -0.55771  -0.54743
 Alpha  occ. eigenvalues --   -0.52779  -0.51845  -0.50107  -0.49892  -0.48173
 Alpha  occ. eigenvalues --   -0.47030  -0.43574  -0.43322  -0.42878  -0.38565
 Alpha  occ. eigenvalues --   -0.34631  -0.30945
 Alpha virt. eigenvalues --   -0.01657   0.00869   0.04333   0.07571   0.12022
 Alpha virt. eigenvalues --    0.13565   0.14469   0.14633   0.15095   0.15528
 Alpha virt. eigenvalues --    0.15988   0.16038   0.16395   0.16912   0.17216
 Alpha virt. eigenvalues --    0.17370   0.17841   0.18722   0.18941   0.19214
 Alpha virt. eigenvalues --    0.19680   0.20000   0.20449   0.20953   0.21335
 Alpha virt. eigenvalues --    0.22059   0.22658
          Condensed to atoms (all electrons):
               1          2          3          4          5          6
     1  C    4.028747   0.000000   0.000000   0.000000   0.000000   0.000000
     2  C    0.000000   4.119430   0.000000   0.000000   0.000000   0.000000
     3  C    0.000000   0.000000   4.028018   0.000000   0.000000   0.000000
     4  C    0.000000   0.000000   0.000000   4.128058   0.000000   0.000000
     5  H    0.000000   0.000000   0.000000   0.000000   0.867171   0.000000
     6  C    0.000000   0.000000   0.000000   0.000000   0.000000   4.068910
     7  C    0.000000   0.000000   0.000000   0.000000   0.000000   0.000000
     8  C    0.000000   0.000000   0.000000   0.000000   0.000000   0.000000
     9  C    0.000000   0.000000   0.000000   0.000000   0.000000   0.000000
    10  H    0.000000   0.000000   0.000000   0.000000   0.000000   0.000000
    11  C    0.000000   0.000000   0.000000   0.000000   0.000000   0.000000
    12  C    0.000000   0.000000   0.000000   0.000000   0.000000   0.000000
    13  C    0.000000   0.000000   0.000000   0.000000   0.000000   0.000000
    14  H    0.000000   0.000000   0.000000   0.000000   0.000000   0.000000
    15  H    0.000000   0.000000   0.000000   0.000000   0.000000   0.000000
    16  H    0.000000   0.000000   0.000000   0.000000   0.000000   0.000000
    17  H    0.000000   0.000000   0.000000   0.000000   0.000000   0.000000
    18  H    0.000000   0.000000   0.000000   0.000000   0.000000   0.000000
    19  H    0.000000   0.000000   0.000000   0.000000   0.000000   0.000000
    20  H    0.000000   0.000000   0.000000   0.000000   0.000000   0.000000
    21  H    0.000000   0.000000   0.000000   0.000000   0.000000   0.000000
               7          8          9         10         11         12
     1  C    0.000000   0.000000   0.000000   0.000000   0.000000   0.000000
     2  C    0.000000   0.000000   0.000000   0.000000   0.000000   0.000000
     3  C    0.000000   0.000000   0.000000   0.000000   0.000000   0.000000
     4  C    0.000000   0.000000   0.000000   0.000000   0.000000   0.000000
     5  H    0.000000   0.000000   0.000000   0.000000   0.000000   0.000000
     6  C    0.000000   0.000000   0.000000   0.000000   0.000000   0.000000
     7  C    4.125028   0.000000   0.000000   0.000000   0.000000   0.000000
     8  C    0.000000   4.119105   0.000000   0.000000   0.000000   0.000000
     9  C    0.000000   0.000000   4.126835   0.000000   0.000000   0.000000
    10  H    0.000000   0.000000   0.000000   0.870615   0.000000   0.000000
    11  C    0.000000   0.000000   0.000000   0.000000   4.167310   0.000000
    12  C    0.000000   0.000000   0.000000   0.000000   0.000000   4.127105
    13  C    0.000000   0.000000   0.000000   0.000000   0.000000   0.000000
    14  H    0.000000   0.000000   0.000000   0.000000   0.000000   0.000000
    15  H    0.000000   0.000000   0.000000   0.000000   0.000000   0.000000
    16  H    0.000000   0.000000   0.000000   0.000000   0.000000   0.000000
    17  H    0.000000   0.000000   0.000000   0.000000   0.000000   0.000000
    18  H    0.000000   0.000000   0.000000   0.000000   0.000000   0.000000
    19  H    0.000000   0.000000   0.000000   0.000000   0.000000   0.000000
    20  H    0.000000   0.000000   0.000000   0.000000   0.000000   0.000000
    21  H    0.000000   0.000000   0.000000   0.000000   0.000000   0.000000
              13         14         15         16         17         18
     1  C    0.000000   0.000000   0.000000   0.000000   0.000000   0.000000
     2  C    0.000000   0.000000   0.000000   0.000000   0.000000   0.000000
     3  C    0.000000   0.000000   0.000000   0.000000   0.000000   0.000000
     4  C    0.000000   0.000000   0.000000   0.000000   0.000000   0.000000
     5  H    0.000000   0.000000   0.000000   0.000000   0.000000   0.000000
     6  C    0.000000   0.000000   0.000000   0.000000   0.000000   0.000000
     7  C    0.000000   0.000000   0.000000   0.000000   0.000000   0.000000
     8  C    0.000000   0.000000   0.000000   0.000000   0.000000   0.000000
     9  C    0.000000   0.000000   0.000000   0.000000   0.000000   0.000000
    10  H    0.000000   0.000000   0.000000   0.000000   0.000000   0.000000
    11  C    0.000000   0.000000   0.000000   0.000000   0.000000   0.000000
    12  C    0.000000   0.000000   0.000000   0.000000   0.000000   0.000000
    13  C    4.122763   0.000000   0.000000   0.000000   0.000000   0.000000
    14  H    0.000000   0.869068   0.000000   0.000000   0.000000   0.000000
    15  H    0.000000   0.000000   0.868744   0.000000   0.000000   0.000000
    16  H    0.000000   0.000000   0.000000   0.870428   0.000000   0.000000
    17  H    0.000000   0.000000   0.000000   0.000000   0.921049   0.000000
    18  H    0.000000   0.000000   0.000000   0.000000   0.000000   0.916348
    19  H    0.000000   0.000000   0.000000   0.000000   0.000000   0.000000
    20  H    0.000000   0.000000   0.000000   0.000000   0.000000   0.000000
    21  H    0.000000   0.000000   0.000000   0.000000   0.000000   0.000000
              19         20         21
     1  C    0.000000   0.000000   0.000000
     2  C    0.000000   0.000000   0.000000
     3  C    0.000000   0.000000   0.000000
     4  C    0.000000   0.000000   0.000000
     5  H    0.000000   0.000000   0.000000
     6  C    0.000000   0.000000   0.000000
     7  C    0.000000   0.000000   0.000000
     8  C    0.000000   0.000000   0.000000
     9  C    0.000000   0.000000   0.000000
    10  H    0.000000   0.000000   0.000000
    11  C    0.000000   0.000000   0.000000
    12  C    0.000000   0.000000   0.000000
    13  C    0.000000   0.000000   0.000000
    14  H    0.000000   0.000000   0.000000
    15  H    0.000000   0.000000   0.000000
    16  H    0.000000   0.000000   0.000000
    17  H    0.000000   0.000000   0.000000
    18  H    0.000000   0.000000   0.000000
    19  H    0.915576   0.000000   0.000000
    20  H    0.000000   0.869649   0.000000
    21  H    0.000000   0.000000   0.870043
 Mulliken charges:
               1
     1  C   -0.028747
     2  C   -0.119430
     3  C   -0.028018
     4  C   -0.128058
     5  H    0.132829
     6  C   -0.068910
     7  C   -0.125028
     8  C   -0.119105
     9  C   -0.126835
    10  H    0.129385
    11  C   -0.167310
    12  C   -0.127105
    13  C   -0.122763
    14  H    0.130932
    15  H    0.131256
    16  H    0.129572
    17  H    0.078951
    18  H    0.083652
    19  H    0.084424
    20  H    0.130351
    21  H    0.129957
 Sum of Mulliken charges =   0.00000
 Mulliken charges with hydrogens summed into heavy atoms:
               1
     1  C   -0.028747
     2  C    0.013399
     3  C   -0.028018
     4  C    0.001327
     6  C   -0.068910
     7  C    0.005904
     8  C    0.012152
     9  C    0.002737
    11  C    0.079717
    12  C    0.003246
    13  C    0.007193
 Charge=              0.0000 electrons
 Dipole moment (field-independent basis, Debye):
    X=             -0.0963    Y=              0.2900    Z=              0.0519  Tot=              0.3100
 N-N= 3.005379675852D+02 E-N=-4.760819753946D+02  KE=-8.700619517743D+01
 Calling FoFJK, ICntrl=      2127 FMM=F ISym2X=0 I1Cent= 0 IOpClX= 0 NMat=1 NMatS=1 NMatT=0.
 ***** Axes restored to original set *****
 -------------------------------------------------------------------
 Center     Atomic                   Forces (Hartrees/Bohr)
 Number     Number              X              Y              Z
 -------------------------------------------------------------------
      1        6           0.003011280   -0.014159996   -0.001808280
      2        6          -0.051058511    0.011165659    0.000143564
      3        6          -0.003624574    0.011370326   -0.000424702
      4        6           0.039061999    0.002196685   -0.000208017
      5        1           0.004846836   -0.020806368   -0.000164012
      6        6           0.050747382   -0.016549942    0.007759060
      7        6           0.048781233   -0.009031580    0.000025475
      8        6          -0.033422950   -0.037016756    0.000171736
      9        6           0.032762870    0.021585970   -0.000118563
     10        1          -0.014091479   -0.015771098    0.000082727
     11        6          -0.017526606    0.066632245   -0.004226889
     12        6          -0.031596145   -0.022100154   -0.002284489
     13        6          -0.039506640   -0.002707575   -0.000617257
     14        1          -0.006719402    0.020367784    0.000206256
     15        1          -0.006638057    0.020426766    0.000084689
     16        1          -0.020717979    0.004360803    0.000110615
     17        1           0.034851254   -0.000656446    0.000449934
     18        1          -0.011684809   -0.016347623   -0.028841632
     19        1          -0.012615052   -0.014378720    0.029395021
     20        1           0.020933695   -0.004238938   -0.000009609
     21        1           0.014205653    0.015658958    0.000274373
 -------------------------------------------------------------------
 Cartesian Forces:  Max     0.066632245 RMS     0.021342973

 GradGradGradGradGradGradGradGradGradGradGradGradGradGradGradGradGradGrad
 Berny optimization.
 FormGI is forming the generalized inverse of G from B-inverse, IUseBI=4.
 Internal  Forces:  Max     0.035748519 RMS     0.011521933
 Search for a local minimum.
 Step number   1 out of a maximum of  118
 All quantities printed in internal units (Hartrees-Bohrs-Radians)
 Mixed Optimization -- RFO/linear search
 Second derivative matrix not updated -- first step.
 ITU=  0
     Eigenvalues ---    0.00237   0.01348   0.02067   0.02068   0.02068
     Eigenvalues ---    0.02070   0.02070   0.02070   0.02071   0.02071
     Eigenvalues ---    0.02071   0.02071   0.02071   0.02073   0.02074
     Eigenvalues ---    0.02075   0.07243   0.07243   0.16000   0.16000
     Eigenvalues ---    0.16000   0.16000   0.16000   0.16000   0.16000
     Eigenvalues ---    0.16000   0.16000   0.16000   0.22000   0.22081
     Eigenvalues ---    0.22579   0.23528   0.24505   0.24920   0.24934
     Eigenvalues ---    0.28519   0.37230   0.37230   0.37230   0.37230
     Eigenvalues ---    0.37230   0.37230   0.37230   0.37230   0.37230
     Eigenvalues ---    0.37230   0.39084   0.41119   0.41751   0.43078
     Eigenvalues ---    0.45337   0.45383   0.45389   0.45389   0.45390
     Eigenvalues ---    0.45398   0.45440
 RFO step:  Lambda=-3.47746322D-02 EMin= 2.36824186D-03
 Linear search not attempted -- first point.
 Iteration  1 RMS(Cart)=  0.05074900 RMS(Int)=  0.00061957
 Iteration  2 RMS(Cart)=  0.00092762 RMS(Int)=  0.00009286
 Iteration  3 RMS(Cart)=  0.00000062 RMS(Int)=  0.00009286
 Variable       Old X    -DE/DX   Delta X   Delta X   Delta X     New X
                                 (Linear)    (Quad)   (Total)
    R1        2.64837   0.02604   0.00000   0.05559   0.05565   2.70403
    R2        2.64843   0.02413   0.00000   0.05808   0.05826   2.70669
    R3        2.64902   0.02831   0.00000   0.06045   0.06052   2.70954
    R4        2.64825  -0.02089   0.00000  -0.04475  -0.04478   2.60347
    R5        2.02201   0.02128   0.00000   0.05228   0.05228   2.07428
    R6        2.64755   0.02338   0.00000   0.04973   0.04975   2.69729
    R7        2.64828   0.02301   0.00000   0.04909   0.04911   2.69739
    R8        2.64814   0.01176   0.00000   0.01976   0.01967   2.66780
    R9        2.02201   0.02115   0.00000   0.05195   0.05195   2.07396
   R10        2.91018  -0.03575   0.00000  -0.11173  -0.11173   2.79845
   R11        2.64897  -0.02089   0.00000  -0.04476  -0.04477   2.60420
   R12        2.64751  -0.02179   0.00000  -0.04697  -0.04704   2.60047
   R13        2.02201   0.02145   0.00000   0.05269   0.05269   2.07469
   R14        2.64815  -0.02194   0.00000  -0.04719  -0.04725   2.60090
   R15        2.02201   0.02148   0.00000   0.05276   0.05276   2.07477
   R16        2.02201   0.02117   0.00000   0.05201   0.05201   2.07402
   R17        2.02201   0.03486   0.00000   0.08564   0.08564   2.10764
   R18        2.02201   0.03514   0.00000   0.08633   0.08633   2.10833
   R19        2.02201   0.03505   0.00000   0.08610   0.08610   2.10811
   R20        2.64822   0.01152   0.00000   0.01919   0.01910   2.66732
   R21        2.02201   0.02136   0.00000   0.05246   0.05246   2.07447
   R22        2.02201   0.02114   0.00000   0.05194   0.05194   2.07395
    A1        2.09400  -0.00917   0.00000  -0.02590  -0.02582   2.06818
    A2        2.09347   0.01876   0.00000   0.05260   0.05241   2.14588
    A3        2.09572  -0.00959   0.00000  -0.02670  -0.02659   2.06912
    A4        2.09462   0.00168   0.00000   0.00888   0.00894   2.10356
    A5        2.09428   0.00106   0.00000   0.00533   0.00530   2.09958
    A6        2.09428  -0.00274   0.00000  -0.01421  -0.01424   2.08005
    A7        2.09449  -0.00479   0.00000  -0.01044  -0.01038   2.08412
    A8        2.09455  -0.00510   0.00000  -0.01170  -0.01163   2.08292
    A9        2.09414   0.00989   0.00000   0.02214   0.02200   2.11615
   A10        2.09441   0.00603   0.00000   0.01306   0.01298   2.10739
   A11        2.09439  -0.00303   0.00000  -0.00661  -0.00657   2.08782
   A12        2.09439  -0.00300   0.00000  -0.00645  -0.00640   2.08798
   A13        2.09469   0.00504   0.00000   0.01697   0.01683   2.11152
   A14        2.09154   0.00151   0.00000   0.00829   0.00826   2.09981
   A15        2.09471  -0.00646   0.00000  -0.02350  -0.02368   2.07103
   A16        2.09392   0.00114   0.00000   0.00527   0.00524   2.09916
   A17        2.09463  -0.00060   0.00000  -0.00279  -0.00278   2.09185
   A18        2.09463  -0.00054   0.00000  -0.00247  -0.00246   2.09217
   A19        2.09445   0.00144   0.00000   0.00679   0.00678   2.10122
   A20        2.09437  -0.00079   0.00000  -0.00372  -0.00372   2.09065
   A21        2.09437  -0.00066   0.00000  -0.00306  -0.00306   2.09131
   A22        2.09433   0.00512   0.00000   0.00889   0.00877   2.10310
   A23        2.09443  -0.00254   0.00000  -0.00433  -0.00427   2.09016
   A24        2.09443  -0.00258   0.00000  -0.00456  -0.00450   2.08993
   A25        1.91063   0.00015   0.00000   0.00056   0.00056   1.91119
   A26        1.91063  -0.00075   0.00000  -0.00365  -0.00366   1.90698
   A27        1.91063  -0.00143   0.00000  -0.00733  -0.00734   1.90329
   A28        1.91063   0.00031   0.00000   0.00161   0.00161   1.91225
   A29        1.91063   0.00051   0.00000   0.00218   0.00217   1.91280
   A30        1.91063   0.00121   0.00000   0.00664   0.00662   1.91726
   A31        2.09578   0.00600   0.00000   0.01298   0.01292   2.10869
   A32        2.09370  -0.00287   0.00000  -0.00583  -0.00580   2.08790
   A33        2.09370  -0.00313   0.00000  -0.00715  -0.00712   2.08659
   A34        2.09452   0.00574   0.00000   0.01095   0.01083   2.10535
   A35        2.09433  -0.00273   0.00000  -0.00475  -0.00469   2.08964
   A36        2.09433  -0.00301   0.00000  -0.00620  -0.00614   2.08820
    D1        0.00465  -0.00014   0.00000  -0.00318  -0.00323   0.00142
    D2       -3.13741  -0.00010   0.00000  -0.00207  -0.00208  -3.13949
    D3       -3.13605  -0.00014   0.00000  -0.00277  -0.00276  -3.13880
    D4        0.00507  -0.00010   0.00000  -0.00166  -0.00160   0.00347
    D5        3.13370   0.00016   0.00000   0.00421   0.00428   3.13798
    D6       -0.00701   0.00022   0.00000   0.00399   0.00400  -0.00301
    D7       -0.00878   0.00018   0.00000   0.00384   0.00387  -0.00492
    D8        3.13369   0.00023   0.00000   0.00362   0.00358   3.13727
    D9       -0.04443   0.00046   0.00000   0.01427   0.01462  -0.02981
   D10       -3.11426  -0.00063   0.00000  -0.01296  -0.01302  -3.12728
   D11        3.09805   0.00046   0.00000   0.01468   0.01509   3.11315
   D12        0.02823  -0.00062   0.00000  -0.01255  -0.01255   0.01568
   D13        0.00005   0.00001   0.00000   0.00066   0.00071   0.00076
   D14        3.14141   0.00003   0.00000   0.00094   0.00098  -3.14080
   D15       -3.14107  -0.00003   0.00000  -0.00047  -0.00044  -3.14151
   D16        0.00029  -0.00001   0.00000  -0.00018  -0.00017   0.00012
   D17       -0.00841   0.00033   0.00000   0.00498   0.00487  -0.00354
   D18        3.13457   0.00018   0.00000   0.00156   0.00145   3.13602
   D19        3.13230   0.00027   0.00000   0.00518   0.00514   3.13744
   D20       -0.00791   0.00012   0.00000   0.00176   0.00172  -0.00618
   D21        0.00466  -0.00011   0.00000  -0.00214  -0.00216   0.00250
   D22       -3.13741  -0.00007   0.00000  -0.00101  -0.00100  -3.13841
   D23       -3.13605  -0.00005   0.00000  -0.00233  -0.00243  -3.13849
   D24        0.00507  -0.00001   0.00000  -0.00121  -0.00128   0.00379
   D25       -0.00241   0.00003   0.00000   0.00103   0.00106  -0.00135
   D26        3.13942   0.00000   0.00000   0.00013   0.00012   3.13954
   D27        3.13942   0.00002   0.00000   0.00075   0.00079   3.14021
   D28       -0.00194  -0.00001   0.00000  -0.00015  -0.00015  -0.00209
   D29       -3.10564  -0.00068   0.00000  -0.01440  -0.01435  -3.11999
   D30        1.08315  -0.00069   0.00000  -0.01449  -0.01442   1.06872
   D31       -1.01125  -0.00084   0.00000  -0.01589  -0.01583  -1.02708
   D32       -0.03595   0.00074   0.00000   0.01420   0.01414  -0.02181
   D33       -2.13034   0.00073   0.00000   0.01411   0.01406  -2.11628
   D34        2.05845   0.00058   0.00000   0.01271   0.01265   2.07110
   D35       -0.03054   0.00053   0.00000   0.01239   0.01250  -0.01804
   D36        3.11176   0.00072   0.00000   0.01393   0.01391   3.12567
   D37       -3.10036  -0.00103   0.00000  -0.01652  -0.01616  -3.11652
   D38        0.04193  -0.00084   0.00000  -0.01498  -0.01474   0.02719
   D39        0.00610  -0.00012   0.00000  -0.00439  -0.00452   0.00158
   D40       -3.13479  -0.00020   0.00000  -0.00480  -0.00481  -3.13960
   D41       -3.13688   0.00003   0.00000  -0.00097  -0.00110  -3.13798
   D42        0.00541  -0.00005   0.00000  -0.00138  -0.00139   0.00402
   D43        0.00005  -0.00001   0.00000  -0.00034  -0.00037  -0.00031
   D44        3.14141   0.00002   0.00000   0.00055   0.00057  -3.14120
   D45       -3.14107  -0.00005   0.00000  -0.00147  -0.00152   3.14059
   D46        0.00029  -0.00002   0.00000  -0.00057  -0.00058  -0.00029
   D47        0.01341  -0.00018   0.00000  -0.00409  -0.00404   0.00937
   D48       -3.12888  -0.00010   0.00000  -0.00368  -0.00375  -3.13264
   D49       -3.12889  -0.00037   0.00000  -0.00562  -0.00545  -3.13434
   D50        0.01201  -0.00029   0.00000  -0.00522  -0.00517   0.00684
         Item               Value     Threshold  Converged?
 Maximum Force            0.035749     0.000450     NO 
 RMS     Force            0.011522     0.000300     NO 
 Maximum Displacement     0.190423     0.001800     NO 
 RMS     Displacement     0.050547     0.001200     NO 
 Predicted change in Energy=-1.891675D-02
 GradGradGradGradGradGradGradGradGradGradGradGradGradGradGradGradGradGrad

                          Input orientation:                          
 ---------------------------------------------------------------------
 Center     Atomic      Atomic             Coordinates (Angstroms)
 Number     Number       Type             X           Y           Z
 ---------------------------------------------------------------------
      1          6           0       -0.015078   -0.432444   -0.005860
      2          6           0       -1.006453   -1.464275   -0.004415
      3          6           0       -0.449283    0.932460    0.000057
      4          6           0       -2.347024   -1.146652    0.000833
      5          1           0       -0.706692   -2.520212   -0.006835
      6          6           0        1.392836   -0.703671   -0.014606
      7          6           0        0.523106    1.977334    0.003227
      8          6           0       -1.847044    1.221801    0.003416
      9          6           0       -2.769539    0.200376    0.003964
     10          1           0       -3.094843   -1.949930    0.002635
     11          6           0        1.901481   -2.094137    0.015099
     12          6           0        2.300902    0.332802    0.001450
     13          6           0        1.865707    1.675518    0.004829
     14          1           0        0.198394    3.026098    0.002459
     15          1           0       -2.187961    2.265451    0.004923
     16          1           0       -3.841693    0.434975    0.006185
     17          1           0        3.016692   -2.082539    0.025130
     18          1           0        1.541650   -2.637092   -0.890697
     19          1           0        1.524298   -2.600263    0.934909
     20          1           0        3.376225    0.112138    0.009728
     21          1           0        2.605698    2.485993    0.009165
 ---------------------------------------------------------------------
                    Distance matrix (angstroms):
                    1          2          3          4          5
     1  C    0.000000
     2  C    1.430909   0.000000
     3  C    1.432317   2.460650   0.000000
     4  C    2.438874   1.377695   2.814983   0.000000
     5  H    2.199343   1.097664   3.462262   2.139490   0.000000
     6  C    1.433829   2.516984   2.463848   3.766035   2.776310
     7  C    2.469161   3.766203   1.427345   4.242280   4.662663
     8  C    2.468342   2.814545   1.427398   2.420652   3.911927
     9  C    2.826236   2.424790   2.433012   1.411741   3.414243
    10  H    3.433335   2.144127   3.912437   1.097493   2.455316
    11  C    2.536703   2.975430   3.832311   4.352898   2.642837
    12  C    2.439143   3.764055   2.814802   4.877704   4.145525
    13  C    2.825061   4.255313   2.431325   5.070677   4.921537
    14  H    3.465133   4.649210   2.191531   4.887842   5.619681
    15  H    3.464126   3.912403   2.190864   3.415811   5.009677
    16  H    3.923715   3.412601   3.428698   2.176145   4.308310
    17  H    3.451870   4.070481   4.593891   5.444806   3.749155
    18  H    2.840214   2.941738   4.183176   4.258876   2.418660
    19  H    2.820313   2.928737   4.153204   4.239412   2.422933
    20  H    3.434785   4.657590   3.912485   5.860052   4.857957
    21  H    3.922495   5.352797   3.427311   6.142120   6.002855
                    6          7          8          9         10
     6  C    0.000000
     7  C    2.818606   0.000000
     8  C    3.768899   2.487658   0.000000
     9  C    4.259461   3.741536   1.376338   0.000000
    10  H    4.657544   5.339753   3.408355   2.174773   0.000000
    11  C    1.480877   4.298481   5.004700   5.204165   4.998420
    12  C    1.378085   2.421786   4.242143   5.072170   5.858748
    13  C    2.425805   1.376108   3.740372   4.864314   6.144179
    14  H    3.916396   1.097881   2.727509   4.097967   5.967098
    15  H    4.651685   2.726334   1.097921   2.145406   4.311829
    16  H    5.356981   4.629293   2.144231   1.097523   2.499113
    17  H    2.130672   4.764559   5.880057   6.220338   6.113014
    18  H    2.127862   4.809310   5.212844   5.238129   4.771509
    19  H    2.125069   4.777532   5.180908   5.210304   4.756946
    20  H    2.144753   3.408707   5.339844   6.146400   6.791678
    21  H    3.412559   2.143819   4.628729   5.840997   7.223131
                   11         12         13         14         15
    11  C    0.000000
    12  C    2.459625   0.000000
    13  C    3.769839   1.411486   0.000000
    14  H    5.396060   3.416779   2.145694   0.000000
    15  H    5.977427   4.887231   4.096369   2.504652   0.000000
    16  H    6.275391   6.143446   5.840665   4.799608   2.466875
    17  H    1.115316   2.519283   3.930416   5.834508   6.781875
    18  H    1.115681   3.192594   4.416513   5.888444   6.224713
    19  H    1.115563   3.174481   4.389067   5.855204   6.190388
    20  H    2.653780   1.097762   2.173901   4.311591   5.966317
    21  H    4.633956   2.174670   1.097486   2.467158   4.798731
                   16         17         18         19         20
    16  H    0.000000
    17  H    7.305866   0.000000
    18  H    6.262777   1.822640   0.000000
    19  H    6.234505   1.822903   1.826060   0.000000
    20  H    7.225135   2.223985   3.425594   3.412142   0.000000
    21  H    6.765762   4.587009   5.309232   5.281707   2.495776
                   21
    21  H    0.000000
 Stoichiometry    C11H10
 Framework group  C1[X(C11H10)]
 Deg. of freedom    57
 Full point group                 C1      NOp   1
 Largest Abelian subgroup         C1      NOp   1
 Largest concise Abelian subgroup C1      NOp   1
                         Standard orientation:                         
 ---------------------------------------------------------------------
 Center     Atomic      Atomic             Coordinates (Angstroms)
 Number     Number       Type             X           Y           Z
 ---------------------------------------------------------------------
      1          6           0        0.010513    0.426274   -0.007866
      2          6           0        0.999435    1.460456   -0.005910
      3          6           0        0.447950   -0.937594   -0.001299
      4          6           0        2.340751    1.146016    0.000433
      5          1           0        0.697171    2.515678   -0.008806
      6          6           0       -1.398034    0.694159   -0.017747
      7          6           0       -0.521959   -1.984771    0.001376
      8          6           0        1.846391   -1.223617    0.003192
      9          6           0        2.766459   -0.200005    0.004201
     10          1           0        3.086661    1.951066    0.002614
     11          6           0       -1.909999    2.083420    0.011244
     12          6           0       -2.303650   -0.344463   -0.002139
     13          6           0       -1.865273   -1.686142    0.001887
     14          1           0       -0.194760   -3.032761    0.001102
     15          1           0        2.189781   -2.266454    0.005202
     16          1           0        3.839164   -0.432059    0.007293
     17          1           0       -3.025186    2.069179    0.020430
     18          1           0       -1.550768    2.627016   -0.894406
     19          1           0       -1.534719    2.590654    0.931222
     20          1           0       -3.379500   -0.126349    0.005269
     21          1           0       -2.603343   -2.498369    0.005850
 ---------------------------------------------------------------------
 Rotational constants (GHZ):           1.9154502           1.1160687           0.7085195
 Standard basis: VSTO-6G (5D, 7F)
 There are    54 symmetry adapted cartesian basis functions of A   symmetry.
 There are    54 symmetry adapted basis functions of A   symmetry.
    54 basis functions,   324 primitive gaussians,    54 cartesian basis functions
    27 alpha electrons       27 beta electrons
       nuclear repulsion energy       298.9912704061 Hartrees.
 Integral buffers will be    131072 words long.
 Regular integral format.
 Two-electron integral symmetry is turned off.
 Do NDO integrals.
 One-electron integrals computed using PRISM.
 NBasis=    54 RedAO= F EigKep=  0.00D+00  NBF=    54
 NBsUse=    54 1.00D-04 EigRej=  0.00D+00 NBFU=    54
 Initial guess from the checkpoint file:  "Napthal_opt_AM1.chk"
 B after Tr=     0.000000    0.000000   -0.000000
         Rot=    1.000000   -0.000034    0.000063   -0.000615 Ang=  -0.07 deg.
 Keep J ints in memory in canonical form, NReq=866898.
 Overlap will be assumed to be unity.
 Requested convergence on RMS density matrix=1.00D-08 within 128 cycles.
 Requested convergence on MAX density matrix=1.00D-06.
 Requested convergence on             energy=1.00D-06.
 No special actions if energy rises.
 SCF Done:  E(RAM1) =  0.553143592145E-01 A.U. after   14 cycles
            NFock= 13  Conv=0.69D-08     -V/T= 1.0006
 Calling FoFJK, ICntrl=      2127 FMM=F ISym2X=0 I1Cent= 0 IOpClX= 0 NMat=1 NMatS=1 NMatT=0.
 ***** Axes restored to original set *****
 -------------------------------------------------------------------
 Center     Atomic                   Forces (Hartrees/Bohr)
 Number     Number              X              Y              Z
 -------------------------------------------------------------------
      1        6          -0.003538998    0.005030134   -0.001074431
      2        6           0.001707829    0.011440915   -0.000006572
      3        6           0.001400212   -0.004709216   -0.000195514
      4        6           0.006666281   -0.001370942    0.000024370
      5        1           0.003684050   -0.000376546   -0.000062066
      6        6          -0.007832160    0.002267890    0.003970064
      7        6           0.000480587   -0.008771700   -0.000286364
      8        6           0.005109166   -0.007493267   -0.000014185
      9        6           0.003611405    0.004328015   -0.000056929
     10        1          -0.002241060   -0.000528460   -0.000008243
     11        6          -0.004747641    0.003875592   -0.001512452
     12        6          -0.003625050    0.003180600   -0.001160277
     13        6          -0.005590474    0.001687644   -0.000156678
     14        1          -0.002697175    0.000256848    0.000177821
     15        1           0.002018802    0.001852134    0.000041464
     16        1          -0.002099398   -0.000991099    0.000027977
     17        1           0.001697156   -0.004451793    0.000053750
     18        1           0.000623819   -0.003538394   -0.000143709
     19        1           0.000601688   -0.003609563    0.000400968
     20        1           0.002427907    0.001420381   -0.000092864
     21        1           0.002343052    0.000500826    0.000073870
 -------------------------------------------------------------------
 Cartesian Forces:  Max     0.011440915 RMS     0.003374833

 GradGradGradGradGradGradGradGradGradGradGradGradGradGradGradGradGradGrad
 Berny optimization.
 Using GEDIIS/GDIIS optimizer.
 FormGI is forming the generalized inverse of G from B-inverse, IUseBI=4.
 Internal  Forces:  Max     0.013351972 RMS     0.003262071
 Search for a local minimum.
 Step number   2 out of a maximum of  118
 All quantities printed in internal units (Hartrees-Bohrs-Radians)
 Mixed Optimization -- RFO/linear search
 Update second derivatives using D2CorX and points    1    2
 DE= -1.55D-02 DEPred=-1.89D-02 R= 8.18D-01
 TightC=F SS=  1.41D+00  RLast= 2.97D-01 DXNew= 5.0454D-01 8.9139D-01
 Trust test= 8.18D-01 RLast= 2.97D-01 DXMaxT set to 5.05D-01
 ITU=  1  0
 Use linear search instead of GDIIS.
     Eigenvalues ---    0.00237   0.01349   0.02066   0.02068   0.02068
     Eigenvalues ---    0.02070   0.02070   0.02070   0.02071   0.02071
     Eigenvalues ---    0.02071   0.02071   0.02071   0.02073   0.02074
     Eigenvalues ---    0.02075   0.07265   0.07301   0.15819   0.16000
     Eigenvalues ---    0.16000   0.16000   0.16000   0.16000   0.16000
     Eigenvalues ---    0.16000   0.16000   0.16030   0.22000   0.22074
     Eigenvalues ---    0.22494   0.23529   0.24480   0.24860   0.25019
     Eigenvalues ---    0.29443   0.33971   0.37230   0.37230   0.37230
     Eigenvalues ---    0.37230   0.37230   0.37230   0.37230   0.37230
     Eigenvalues ---    0.37239   0.41125   0.41303   0.42070   0.43124
     Eigenvalues ---    0.44390   0.45355   0.45383   0.45390   0.45391
     Eigenvalues ---    0.45427   0.56339
 RFO step:  Lambda=-2.86259486D-03 EMin= 2.36824246D-03
 Quartic linear search produced a step of -0.09035.
 Iteration  1 RMS(Cart)=  0.02950872 RMS(Int)=  0.00054035
 Iteration  2 RMS(Cart)=  0.00073891 RMS(Int)=  0.00017983
 Iteration  3 RMS(Cart)=  0.00000050 RMS(Int)=  0.00017983
 Variable       Old X    -DE/DX   Delta X   Delta X   Delta X     New X
                                 (Linear)    (Quad)   (Total)
    R1        2.70403  -0.01305  -0.00503  -0.01743  -0.02245   2.68158
    R2        2.70669  -0.01335  -0.00526  -0.01976  -0.02501   2.68168
    R3        2.70954  -0.00972  -0.00547  -0.00958  -0.01501   2.69453
    R4        2.60347  -0.00489   0.00405  -0.01683  -0.01278   2.59068
    R5        2.07428   0.00137  -0.00472   0.01229   0.00757   2.08185
    R6        2.69729  -0.00889  -0.00449  -0.01017  -0.01469   2.68260
    R7        2.69739  -0.00879  -0.00444  -0.00963  -0.01407   2.68332
    R8        2.66780  -0.00051  -0.00178   0.00390   0.00212   2.66993
    R9        2.07396   0.00191  -0.00469   0.01356   0.00886   2.08283
   R10        2.79845   0.00660   0.01009   0.00153   0.01162   2.81007
   R11        2.60420   0.00318   0.00404  -0.00029   0.00378   2.60799
   R12        2.60047  -0.00442   0.00425  -0.01624  -0.01204   2.58843
   R13        2.07469   0.00104  -0.00476   0.01157   0.00681   2.08151
   R14        2.60090  -0.00386   0.00427  -0.01476  -0.01050   2.59040
   R15        2.07477   0.00113  -0.00477   0.01181   0.00704   2.08181
   R16        2.07402   0.00184  -0.00470   0.01339   0.00869   2.08271
   R17        2.10764   0.00165  -0.00774   0.01871   0.01097   2.11861
   R18        2.10833   0.00164  -0.00780   0.01879   0.01099   2.11933
   R19        2.10811   0.00176  -0.00778   0.01906   0.01128   2.11939
   R20        2.66732  -0.00025  -0.00173   0.00439   0.00265   2.66997
   R21        2.07447   0.00209  -0.00474   0.01408   0.00934   2.08381
   R22        2.07395   0.00195  -0.00469   0.01364   0.00895   2.08290
    A1        2.06818   0.00230   0.00233   0.00075   0.00307   2.07125
    A2        2.14588  -0.00637  -0.00474  -0.00863  -0.01342   2.13246
    A3        2.06912   0.00407   0.00240   0.00788   0.01035   2.07948
    A4        2.10356   0.00140  -0.00081   0.00555   0.00476   2.10832
    A5        2.09958  -0.00427  -0.00048  -0.02097  -0.02146   2.07812
    A6        2.08005   0.00287   0.00129   0.01542   0.01670   2.09675
    A7        2.08412   0.00178   0.00094   0.00124   0.00218   2.08630
    A8        2.08292   0.00085   0.00105  -0.00077   0.00029   2.08321
    A9        2.11615  -0.00263  -0.00199  -0.00047  -0.00247   2.11368
   A10        2.10739  -0.00240  -0.00117  -0.00405  -0.00522   2.10217
   A11        2.08782   0.00253   0.00059   0.00942   0.01001   2.09783
   A12        2.08798  -0.00013   0.00058  -0.00537  -0.00479   2.08319
   A13        2.11152  -0.00612  -0.00152  -0.01863  -0.02057   2.09096
   A14        2.09981  -0.00316  -0.00075  -0.00922  -0.01024   2.08957
   A15        2.07103   0.00931   0.00214   0.02989   0.03160   2.10263
   A16        2.09916   0.00072  -0.00047   0.00208   0.00156   2.10071
   A17        2.09185  -0.00295   0.00025  -0.01554  -0.01527   2.07658
   A18        2.09217   0.00223   0.00022   0.01346   0.01370   2.10588
   A19        2.10122   0.00059  -0.00061   0.00371   0.00309   2.10432
   A20        2.09065  -0.00288   0.00034  -0.01635  -0.01601   2.07463
   A21        2.09131   0.00229   0.00028   0.01264   0.01292   2.10423
   A22        2.10310  -0.00273  -0.00079  -0.00519  -0.00599   2.09711
   A23        2.09016  -0.00010   0.00039  -0.00559  -0.00520   2.08496
   A24        2.08993   0.00283   0.00041   0.01077   0.01118   2.10111
   A25        1.91119   0.00560  -0.00005   0.03334   0.03296   1.94415
   A26        1.90698   0.00292   0.00033   0.01460   0.01473   1.92171
   A27        1.90329   0.00300   0.00066   0.01447   0.01493   1.91822
   A28        1.91225  -0.00387  -0.00015  -0.01937  -0.01984   1.89241
   A29        1.91280  -0.00384  -0.00020  -0.01895  -0.01948   1.89332
   A30        1.91726  -0.00372  -0.00060  -0.02363  -0.02429   1.89297
   A31        2.10869  -0.00120  -0.00117   0.00189   0.00077   2.10946
   A32        2.08790   0.00255   0.00052   0.01005   0.01055   2.09845
   A33        2.08659  -0.00135   0.00064  -0.01193  -0.01132   2.07527
   A34        2.10535  -0.00221  -0.00098  -0.00351  -0.00452   2.10083
   A35        2.08964   0.00255   0.00042   0.00994   0.01038   2.10002
   A36        2.08820  -0.00034   0.00055  -0.00643  -0.00586   2.08233
    D1        0.00142  -0.00009   0.00029  -0.00393  -0.00356  -0.00214
    D2       -3.13949  -0.00006   0.00019  -0.00238  -0.00216   3.14154
    D3       -3.13880  -0.00008   0.00025  -0.00491  -0.00468   3.13970
    D4        0.00347  -0.00005   0.00014  -0.00336  -0.00328   0.00019
    D5        3.13798   0.00015  -0.00039   0.00674   0.00618  -3.13903
    D6       -0.00301   0.00011  -0.00036   0.00537   0.00494   0.00193
    D7       -0.00492   0.00013  -0.00035   0.00767   0.00725   0.00233
    D8        3.13727   0.00009  -0.00032   0.00630   0.00601  -3.13990
    D9       -0.02981   0.00071  -0.00132   0.03329   0.03121   0.00140
   D10       -3.12728  -0.00039   0.00118  -0.02213  -0.02071   3.13520
   D11        3.11315   0.00072  -0.00136   0.03231   0.03009  -3.13995
   D12        0.01568  -0.00038   0.00113  -0.02311  -0.02183  -0.00615
   D13        0.00076   0.00002  -0.00006   0.00044   0.00034   0.00110
   D14       -3.14080   0.00002  -0.00009   0.00101   0.00089  -3.13991
   D15       -3.14151  -0.00002   0.00004  -0.00111  -0.00109   3.14058
   D16        0.00012  -0.00001   0.00002  -0.00054  -0.00054  -0.00042
   D17       -0.00354   0.00008  -0.00044   0.00673   0.00639   0.00285
   D18        3.13602   0.00006  -0.00013   0.00314   0.00312   3.13914
   D19        3.13744   0.00011  -0.00046   0.00812   0.00765  -3.13809
   D20       -0.00618   0.00010  -0.00016   0.00453   0.00438  -0.00180
   D21        0.00250  -0.00007   0.00020  -0.00342  -0.00320  -0.00071
   D22       -3.13841  -0.00005   0.00009  -0.00204  -0.00196  -3.14038
   D23       -3.13849  -0.00011   0.00022  -0.00482  -0.00446   3.14024
   D24        0.00379  -0.00008   0.00012  -0.00343  -0.00323   0.00057
   D25       -0.00135   0.00004  -0.00010   0.00165   0.00152   0.00018
   D26        3.13954   0.00002  -0.00001   0.00100   0.00100   3.14055
   D27        3.14021   0.00003  -0.00007   0.00109   0.00097   3.14119
   D28       -0.00209   0.00002   0.00001   0.00044   0.00045  -0.00163
   D29       -3.11999  -0.00042   0.00130  -0.03065  -0.02948   3.13371
   D30        1.06872  -0.00088   0.00130  -0.03616  -0.03508   1.03364
   D31       -1.02708   0.00008   0.00143  -0.02490  -0.02349  -1.05057
   D32       -0.02181   0.00035  -0.00128   0.02294   0.02178  -0.00003
   D33       -2.11628  -0.00010  -0.00127   0.01743   0.01618  -2.10010
   D34        2.07110   0.00086  -0.00114   0.02868   0.02777   2.09887
   D35       -0.01804   0.00039  -0.00113   0.02418   0.02294   0.00490
   D36        3.12567   0.00036  -0.00126   0.02364   0.02244  -3.13508
   D37       -3.11652  -0.00030   0.00146  -0.02878  -0.02802   3.13864
   D38        0.02719  -0.00033   0.00133  -0.02932  -0.02852  -0.00133
   D39        0.00158  -0.00013   0.00041  -0.00632  -0.00581  -0.00423
   D40       -3.13960  -0.00008   0.00043  -0.00723  -0.00687   3.13671
   D41       -3.13798  -0.00010   0.00010  -0.00270  -0.00245  -3.14043
   D42        0.00402  -0.00006   0.00013  -0.00360  -0.00351   0.00051
   D43       -0.00031  -0.00001   0.00003  -0.00012  -0.00005  -0.00037
   D44       -3.14120   0.00001  -0.00005   0.00054   0.00048  -3.14072
   D45        3.14059  -0.00003   0.00014  -0.00152  -0.00132   3.13927
   D46       -0.00029  -0.00002   0.00005  -0.00086  -0.00079  -0.00109
   D47        0.00937  -0.00011   0.00036  -0.00925  -0.00904   0.00033
   D48       -3.13264  -0.00015   0.00034  -0.00835  -0.00798  -3.14062
   D49       -3.13434  -0.00008   0.00049  -0.00869  -0.00852   3.14033
   D50        0.00684  -0.00012   0.00047  -0.00778  -0.00747  -0.00062
         Item               Value     Threshold  Converged?
 Maximum Force            0.013352     0.000450     NO 
 RMS     Force            0.003262     0.000300     NO 
 Maximum Displacement     0.140408     0.001800     NO 
 RMS     Displacement     0.029820     0.001200     NO 
 Predicted change in Energy=-1.623535D-03
 GradGradGradGradGradGradGradGradGradGradGradGradGradGradGradGradGradGrad

                          Input orientation:                          
 ---------------------------------------------------------------------
 Center     Atomic      Atomic             Coordinates (Angstroms)
 Number     Number       Type             X           Y           Z
 ---------------------------------------------------------------------
      1          6           0       -0.006136   -0.416074    0.007009
      2          6           0       -0.980766   -1.447446    0.003344
      3          6           0       -0.443387    0.933965    0.004664
      4          6           0       -2.318770   -1.148801    0.000168
      5          1           0       -0.648529   -2.497823    0.005082
      6          6           0        1.392589   -0.693001    0.012656
      7          6           0        0.515985    1.980284    0.005092
      8          6           0       -1.835259    1.214938    0.001134
      9          6           0       -2.752157    0.195951   -0.000846
     10          1           0       -3.067340   -1.957784   -0.001059
     11          6           0        1.866996   -2.102322    0.013058
     12          6           0        2.296616    0.349763    0.008372
     13          6           0        1.855013    1.691859    0.004381
     14          1           0        0.166436    3.024827    0.000892
     15          1           0       -2.165701    2.265854   -0.001843
     16          1           0       -3.831774    0.417496   -0.004414
     17          1           0        2.986785   -2.156840    0.009545
     18          1           0        1.483119   -2.638577   -0.894041
     19          1           0        1.488136   -2.632505    0.925860
     20          1           0        3.380175    0.145189    0.006476
     21          1           0        2.599348    2.504780    0.000068
 ---------------------------------------------------------------------
                    Distance matrix (angstroms):
                    1          2          3          4          5
     1  C    0.000000
     2  C    1.419030   0.000000
     3  C    1.419083   2.441290   0.000000
     4  C    2.425945   1.370931   2.802677   0.000000
     5  H    2.178613   1.101670   3.437914   2.146995   0.000000
     6  C    1.425886   2.490399   2.453138   3.739263   2.724629
     7  C    2.452579   3.740267   1.419569   4.222207   4.627044
     8  C    2.450698   2.796150   1.419953   2.412685   3.897812
     9  C    2.813408   2.416319   2.423863   1.412864   3.417851
    10  H    3.427521   2.148081   3.904788   1.102184   2.478371
    11  C    2.520336   2.922106   3.815361   4.293018   2.546439
    12  C    2.426762   3.737810   2.801593   4.852582   4.096662
    13  C    2.811986   4.230471   2.420133   5.048745   4.880693
    14  H    3.445231   4.617067   2.177982   4.857512   5.582460
    15  H    3.443332   3.897781   2.177231   3.418085   4.999448
    16  H    3.915415   3.406805   3.427534   2.177726   4.316506
    17  H    3.462348   4.030477   4.617270   5.400476   3.651274
    18  H    2.822994   2.880073   4.157181   4.180119   2.317791
    19  H    2.826607   2.889789   4.159218   4.189369   2.330517
    20  H    3.432510   4.642662   3.904075   5.844008   4.818297
    21  H    3.914075   5.332666   3.424284   6.126707   5.964459
                    6          7          8          9         10
     6  C    0.000000
     7  C    2.813351   0.000000
     8  C    3.749582   2.472674   0.000000
     9  C    4.239025   3.723524   1.370781   0.000000
    10  H    4.635820   5.324343   3.403555   2.176674   0.000000
    11  C    1.487027   4.300344   4.971021   5.159343   4.936472
    12  C    1.380087   2.414386   4.221489   5.051124   5.839254
    13  C    2.429293   1.369739   3.720963   4.843943   6.127763
    14  H    3.914823   1.101487   2.698607   4.064570   5.940010
    15  H    4.627792   2.696857   1.101647   2.151379   4.318804
    16  H    5.341111   4.620109   2.149888   1.102120   2.495261
    17  H    2.164323   4.818782   5.883967   6.202515   6.057406
    18  H    2.148386   4.803922   5.163579   5.173964   4.686957
    19  H    2.145868   4.803198   5.167484   5.180640   4.697530
    20  H    2.157105   3.401641   5.324016   6.132547   6.781814
    21  H    3.417928   2.148377   4.618380   5.828319   7.212893
                   11         12         13         14         15
    11  C    0.000000
    12  C    2.489441   0.000000
    13  C    3.794210   1.412888   0.000000
    14  H    5.401825   3.419605   2.151304   0.000000
    15  H    5.945067   4.856314   4.061483   2.452531   0.000000
    16  H    6.231033   6.128779   5.827832   4.773247   2.488420
    17  H    1.121121   2.599883   4.011660   5.899502   6.790321
    18  H    1.121499   3.225880   4.438259   5.882917   6.177649
    19  H    1.121534   3.223251   4.436649   5.882845   6.181026
    20  H    2.709440   1.102703   2.172168   4.315144   5.937510
    21  H    4.664965   2.176193   1.102222   2.487873   4.771036
                   16         17         18         19         20
    16  H    0.000000
    17  H    7.288358   0.000000
    18  H    6.195087   1.819218   0.000000
    19  H    6.202368   1.819846   1.819918   0.000000
    20  H    7.217097   2.335402   3.486992   3.484346   0.000000
    21  H    6.761369   4.677702   5.338494   5.337001   2.485437
                   21
    21  H    0.000000
 Stoichiometry    C11H10
 Framework group  C1[X(C11H10)]
 Deg. of freedom    57
 Full point group                 C1      NOp   1
 Largest Abelian subgroup         C1      NOp   1
 Largest concise Abelian subgroup C1      NOp   1
                         Standard orientation:                         
 ---------------------------------------------------------------------
 Center     Atomic      Atomic             Coordinates (Angstroms)
 Number     Number       Type             X           Y           Z
 ---------------------------------------------------------------------
      1          6           0        0.006170    0.413817    0.001156
      2          6           0        0.983029    1.443081   -0.001946
      3          6           0        0.440511   -0.937162    0.001651
      4          6           0        2.320389    1.141549   -0.001902
      5          1           0        0.653057    2.494173   -0.002401
      6          6           0       -1.391963    0.693766    0.003488
      7          6           0       -0.521116   -1.981409    0.001569
      8          6           0        1.831777   -1.221139    0.001428
      9          6           0        2.750874   -0.204134   -0.000092
     10          1           0        3.070704    1.948914   -0.002721
     11          6           0       -1.863327    2.104105    0.000888
     12          6           0       -2.298227   -0.347052   -0.001195
     13          6           0       -1.859514   -1.690102   -0.002349
     14          1           0       -0.173813   -3.026709   -0.000410
     15          1           0        2.159956   -2.272768    0.000641
     16          1           0        3.830016   -0.428010   -0.001090
     17          1           0       -2.982987    2.161031   -0.005040
     18          1           0       -1.476403    2.638233   -0.906172
     19          1           0       -1.485228    2.634777    0.913722
     20          1           0       -3.381336   -0.140147   -0.005646
     21          1           0       -2.605591   -2.501422   -0.007055
 ---------------------------------------------------------------------
 Rotational constants (GHZ):           1.9105289           1.1339815           0.7149717
 Standard basis: VSTO-6G (5D, 7F)
 There are    54 symmetry adapted cartesian basis functions of A   symmetry.
 There are    54 symmetry adapted basis functions of A   symmetry.
    54 basis functions,   324 primitive gaussians,    54 cartesian basis functions
    27 alpha electrons       27 beta electrons
       nuclear repulsion energy       299.6305447855 Hartrees.
 Integral buffers will be    131072 words long.
 Regular integral format.
 Two-electron integral symmetry is turned off.
 Do NDO integrals.
 One-electron integrals computed using PRISM.
 NBasis=    54 RedAO= F EigKep=  0.00D+00  NBF=    54
 NBsUse=    54 1.00D-04 EigRej=  0.00D+00 NBFU=    54
 Initial guess from the checkpoint file:  "Napthal_opt_AM1.chk"
 B after Tr=    -0.000000   -0.000000    0.000000
         Rot=    0.999999    0.000209    0.000075    0.001691 Ang=   0.20 deg.
 Keep J ints in memory in canonical form, NReq=866898.
 Overlap will be assumed to be unity.
 Requested convergence on RMS density matrix=1.00D-08 within 128 cycles.
 Requested convergence on MAX density matrix=1.00D-06.
 Requested convergence on             energy=1.00D-06.
 No special actions if energy rises.
 SCF Done:  E(RAM1) =  0.540273285054E-01 A.U. after   13 cycles
            NFock= 12  Conv=0.86D-08     -V/T= 1.0006
 Calling FoFJK, ICntrl=      2127 FMM=F ISym2X=0 I1Cent= 0 IOpClX= 0 NMat=1 NMatS=1 NMatT=0.
 ***** Axes restored to original set *****
 -------------------------------------------------------------------
 Center     Atomic                   Forces (Hartrees/Bohr)
 Number     Number              X              Y              Z
 -------------------------------------------------------------------
      1        6           0.000603933    0.001818334    0.000211890
      2        6           0.000186064   -0.003721863    0.000252220
      3        6           0.000205488    0.000231266    0.000174854
      4        6          -0.003793490   -0.003163823    0.000022722
      5        1           0.000039042    0.000504846   -0.000043812
      6        6           0.005834648   -0.003049559   -0.000934350
      7        6          -0.001610106    0.003003221   -0.000409966
      8        6          -0.001047235    0.002888369   -0.000144624
      9        6          -0.004485861    0.000653640   -0.000095637
     10        1           0.000296533    0.001396418   -0.000043462
     11        6          -0.000573661    0.002470115    0.000350400
     12        6           0.001199273   -0.002236470    0.000082985
     13        6           0.003854685    0.001185102    0.000117843
     14        1          -0.000406190   -0.000865465    0.000131621
     15        1           0.000813878   -0.000466845    0.000083958
     16        1           0.001158956   -0.000962673    0.000046749
     17        1          -0.002736875    0.000362085    0.000039272
     18        1           0.001016132    0.000666180    0.001584799
     19        1           0.001095711    0.000403047   -0.001610269
     20        1          -0.001419605    0.000388162    0.000111073
     21        1          -0.000231318   -0.001504086    0.000071735
 -------------------------------------------------------------------
 Cartesian Forces:  Max     0.005834648 RMS     0.001708715

 GradGradGradGradGradGradGradGradGradGradGradGradGradGradGradGradGradGrad
 Berny optimization.
 Using GEDIIS/GDIIS optimizer.
 FormGI is forming the generalized inverse of G from B-inverse, IUseBI=4.
 Internal  Forces:  Max     0.004766876 RMS     0.001224753
 Search for a local minimum.
 Step number   3 out of a maximum of  118
 All quantities printed in internal units (Hartrees-Bohrs-Radians)
 Mixed Optimization -- RFO/linear search
 Update second derivatives using D2CorX and points    1    2    3
 DE= -1.29D-03 DEPred=-1.62D-03 R= 7.93D-01
 TightC=F SS=  1.41D+00  RLast= 1.44D-01 DXNew= 8.4853D-01 4.3060D-01
 Trust test= 7.93D-01 RLast= 1.44D-01 DXMaxT set to 5.05D-01
 ITU=  1  1  0
 Use linear search instead of GDIIS.
     Eigenvalues ---    0.00237   0.01381   0.02066   0.02068   0.02069
     Eigenvalues ---    0.02070   0.02070   0.02070   0.02070   0.02071
     Eigenvalues ---    0.02071   0.02071   0.02072   0.02073   0.02074
     Eigenvalues ---    0.02075   0.06953   0.07163   0.13684   0.16000
     Eigenvalues ---    0.16000   0.16000   0.16000   0.16000   0.16000
     Eigenvalues ---    0.16000   0.16007   0.16198   0.22000   0.22070
     Eigenvalues ---    0.22367   0.23540   0.24459   0.24923   0.24997
     Eigenvalues ---    0.29786   0.36741   0.37230   0.37230   0.37230
     Eigenvalues ---    0.37230   0.37230   0.37230   0.37230   0.37238
     Eigenvalues ---    0.37769   0.41102   0.41846   0.41982   0.43144
     Eigenvalues ---    0.45153   0.45375   0.45389   0.45390   0.45409
     Eigenvalues ---    0.46523   0.66488
 RFO step:  Lambda=-2.21305800D-04 EMin= 2.36889984D-03
 Quartic linear search produced a step of -0.16118.
 Iteration  1 RMS(Cart)=  0.00540723 RMS(Int)=  0.00003135
 Iteration  2 RMS(Cart)=  0.00001539 RMS(Int)=  0.00002839
 Iteration  3 RMS(Cart)=  0.00000000 RMS(Int)=  0.00002839
 Variable       Old X    -DE/DX   Delta X   Delta X   Delta X     New X
                                 (Linear)    (Quad)   (Total)
    R1        2.68158   0.00477   0.00362   0.00304   0.00666   2.68823
    R2        2.68168   0.00178   0.00403  -0.00294   0.00109   2.68277
    R3        2.69453   0.00420   0.00242   0.00365   0.00606   2.70060
    R4        2.59068   0.00404   0.00206   0.00465   0.00671   2.59739
    R5        2.08185  -0.00047  -0.00122   0.00046  -0.00076   2.08110
    R6        2.68260   0.00219   0.00237   0.00036   0.00273   2.68533
    R7        2.68332   0.00293   0.00227   0.00158   0.00384   2.68716
    R8        2.66993   0.00214  -0.00034   0.00430   0.00396   2.67388
    R9        2.08283  -0.00123  -0.00143  -0.00090  -0.00233   2.08050
   R10        2.81007  -0.00408  -0.00187  -0.00837  -0.01024   2.79983
   R11        2.60799  -0.00129  -0.00061  -0.00137  -0.00199   2.60600
   R12        2.58843   0.00394   0.00194   0.00459   0.00653   2.59497
   R13        2.08151  -0.00069  -0.00110  -0.00021  -0.00131   2.08020
   R14        2.59040   0.00360   0.00169   0.00424   0.00593   2.59633
   R15        2.08181  -0.00069  -0.00113  -0.00015  -0.00129   2.08052
   R16        2.08271  -0.00133  -0.00140  -0.00117  -0.00257   2.08014
   R17        2.11861  -0.00275  -0.00177  -0.00397  -0.00574   2.11287
   R18        2.11933  -0.00195  -0.00177  -0.00219  -0.00396   2.11536
   R19        2.11939  -0.00187  -0.00182  -0.00195  -0.00377   2.11562
   R20        2.66997   0.00057  -0.00043   0.00139   0.00097   2.67094
[...]
 ! D28   D(10,4,9,16)            0.0            -DE/DX =    0.0                 !
 ! D29   D(1,6,11,17)         -179.9943         -DE/DX =    0.0                 !
 ! D30   D(1,6,11,18)           59.8634         -DE/DX =    0.0                 !
 ! D31   D(1,6,11,19)          -59.8517         -DE/DX =    0.0                 !
 ! D32   D(12,6,11,17)           0.0102         -DE/DX =    0.0                 !
 ! D33   D(12,6,11,18)        -120.1321         -DE/DX =    0.0                 !
 ! D34   D(12,6,11,19)         120.1528         -DE/DX =    0.0                 !
 ! D35   D(1,6,12,13)            0.0022         -DE/DX =    0.0                 !
 ! D36   D(1,6,12,20)          180.0124         -DE/DX =    0.0                 !
 ! D37   D(11,6,12,13)        -180.0023         -DE/DX =    0.0                 !
 ! D38   D(11,6,12,20)           0.0079         -DE/DX =    0.0                 !
 ! D39   D(3,7,13,12)           -0.0131         -DE/DX =    0.0                 !
 ! D40   D(3,7,13,21)         -180.0154         -DE/DX =    0.0                 !
 ! D41   D(14,7,13,12)         180.0047         -DE/DX =    0.0                 !
 ! D42   D(14,7,13,21)           0.0024         -DE/DX =    0.0                 !
 ! D43   D(3,8,9,4)             -0.0032         -DE/DX =    0.0                 !
 ! D44   D(3,8,9,16)          -179.9988         -DE/DX =    0.0                 !
 ! D45   D(15,8,9,4)           179.998          -DE/DX =    0.0                 !
 ! D46   D(15,8,9,16)            0.0024         -DE/DX =    0.0                 !
 ! D47   D(6,12,13,7)            0.0069         -DE/DX =    0.0                 !
 ! D48   D(6,12,13,21)         180.0091         -DE/DX =    0.0                 !
 ! D49   D(20,12,13,7)        -180.0032         -DE/DX =    0.0                 !
 ! D50   D(20,12,13,21)         -0.0009         -DE/DX =    0.0                 !
 --------------------------------------------------------------------------------
 GradGradGradGradGradGradGradGradGradGradGradGradGradGradGradGradGradGrad

                          Input orientation:                          
 ---------------------------------------------------------------------
 Center     Atomic      Atomic             Coordinates (Angstroms)
 Number     Number       Type             X           Y           Z
 ---------------------------------------------------------------------
      1          6           0       -0.007241   -0.416682    0.005409
      2          6           0       -0.985610   -1.449447    0.005376
      3          6           0       -0.444242    0.933788    0.002321
      4          6           0       -2.325746   -1.149986    0.002493
      5          1           0       -0.651271   -2.498104    0.007735
      6          6           0        1.394794   -0.694849    0.008327
      7          6           0        0.516873    1.981383    0.002220
      8          6           0       -1.838180    1.216161   -0.000604
      9          6           0       -2.758289    0.197538   -0.000487
     10          1           0       -3.078180   -1.952321    0.002465
     11          6           0        1.870581   -2.098492    0.011579
     12          6           0        2.297559    0.347380    0.008004
     13          6           0        1.857813    1.691079    0.004868
     14          1           0        0.162831    3.022995   -0.000309
     15          1           0       -2.161128    2.268135   -0.002938
     16          1           0       -3.836589    0.413830   -0.002766
     17          1           0        2.987359   -2.146879    0.013709
     18          1           0        1.498456   -2.638097   -0.895315
     19          1           0        1.495111   -2.634986    0.918930
     20          1           0        3.379393    0.144791    0.010029
     21          1           0        2.607086    2.496495    0.004552
 ---------------------------------------------------------------------
                    Distance matrix (angstroms):
                    1          2          3          4          5
     1  C    0.000000
     2  C    1.422607   0.000000
     3  C    1.419418   2.443951   0.000000
     4  C    2.431709   1.373190   2.807520   0.000000
     5  H    2.178784   1.100668   3.438135   2.149725   0.000000
     6  C    1.429366   2.497149   2.456532   3.748280   2.727291
     7  C    2.454674   3.745405   1.421689   4.229179   4.629298
     8  C    2.453274   2.798639   1.422254   2.415861   3.899307
     9  C    2.818788   2.419708   2.428350   1.415247   3.421415
    10  H    3.433491   2.152148   3.907333   1.099954   2.487528
    11  C    2.520861   2.929014   3.814867   4.302198   2.553319
    12  C    2.428148   3.742699   2.803815   4.859741   4.097851
    13  C    2.814442   4.236503   2.423418   5.057057   4.883111
    14  H    3.443884   4.617541   2.175622   4.858682   5.580803
    15  H    3.442025   3.899016   2.174444   3.422087   4.999682
    16  H    3.918383   3.405870   3.431967   2.174441   4.315753
    17  H    3.458509   4.033728   4.611564   5.405831   3.655547
    18  H    2.830744   2.897364   4.163915   4.200602   2.335899
    19  H    2.830628   2.897250   4.163821   4.200479   2.335801
    20  H    3.432865   4.647028   3.904198   5.850224   4.819871
    21  H    3.914244   5.336471   3.428216   6.134302   5.963466
                    6          7          8          9         10
     6  C    0.000000
     7  C    2.816558   0.000000
     8  C    3.755551   2.476257   0.000000
     9  C    4.247885   3.729450   1.372659   0.000000
    10  H    4.646372   5.329018   3.402483   2.173530   0.000000
    11  C    1.482093   4.298604   4.974132   5.167043   4.950927
    12  C    1.378849   2.416783   4.226014   5.058075   5.846984
    13  C    2.430442   1.372007   3.726385   4.851710   6.135014
    14  H    3.916653   1.100139   2.696051   4.064006   5.937839
    15  H    4.628604   2.693314   1.100431   2.154989   4.318943
    16  H    5.347585   4.627081   2.153457   1.099782   2.484730
    17  H    2.155153   4.811027   5.881843   6.205559   6.068669
    18  H    2.145584   4.807148   5.175805   5.192439   4.714011
    19  H    2.145552   4.807096   5.175684   5.192295   4.713908
    20  H    2.154909   3.401052   5.326445   6.137917   6.789565
    21  H    3.413845   2.152751   4.625978   5.837163   7.219018
                   11         12         13         14         15
    11  C    0.000000
    12  C    2.482864   0.000000
    13  C    3.789599   1.413830   0.000000
    14  H    5.398720   3.422871   2.155687   0.000000
    15  H    5.943258   4.854823   4.060164   2.443482   0.000000
    16  H    6.235684   6.134518   5.835892   4.775260   2.499124
    17  H    1.117828   2.587892   4.000735   5.891159   6.782296
    18  H    1.118976   3.219880   4.436354   5.884972   6.185467
    19  H    1.118967   3.219972   4.436429   5.884957   6.185347
    20  H    2.703486   1.100641   2.169387   4.316299   5.933475
    21  H    4.653643   2.171293   1.100048   2.500322   4.773685
                   16         17         18         19         20
    16  H    0.000000
    17  H    7.288606   0.000000
    18  H    6.210766   1.812306   0.000000
    19  H    6.210622   1.812313   1.814250   0.000000
    20  H    7.221007   2.324964   3.478799   3.479049   0.000000
    21  H    6.771891   4.658928   5.329433   5.329603   2.475277
                   21
    21  H    0.000000
 Stoichiometry    C11H10
 Framework group  C1[X(C11H10)]
 Deg. of freedom    57
 Full point group                 C1      NOp   1
 Largest Abelian subgroup         C1      NOp   1
 Largest concise Abelian subgroup C1      NOp   1
                         Standard orientation:                         
 ---------------------------------------------------------------------
 Center     Atomic      Atomic             Coordinates (Angstroms)
 Number     Number       Type             X           Y           Z
 ---------------------------------------------------------------------
      1          6           0        0.006475    0.414342    0.000058
      2          6           0        0.987101    1.444964   -0.000053
      3          6           0        0.440523   -0.937083    0.000058
      4          6           0        2.326581    1.142569   -0.000090
      5          1           0        0.655055    2.494352   -0.000083
      6          6           0       -1.394951    0.695578    0.000058
      7          6           0       -0.522881   -1.982574    0.000091
      8          6           0        1.833843   -1.222508    0.000044
      9          6           0        2.756177   -0.205900    0.000005
     10          1           0        3.080769    1.943257   -0.000193
     11          6           0       -1.867668    2.100262    0.000063
     12          6           0       -2.299993   -0.344674   -0.000039
     13          6           0       -1.863185   -1.689335   -0.000094
     14          1           0       -0.171117   -3.024960   -0.000027
     15          1           0        2.154490   -2.275188    0.000086
     16          1           0        3.834004   -0.424553   -0.000025
     17          1           0       -2.984340    2.151093    0.000167
     18          1           0       -1.492790    2.637484   -0.907111
     19          1           0       -1.492600    2.637500    0.907139
     20          1           0       -3.381383   -0.139717   -0.000244
     21          1           0       -2.614219   -2.493109   -0.000324
 ---------------------------------------------------------------------
 Rotational constants (GHZ):           1.9114155           1.1298108           0.7134130

 **********************************************************************

            Population analysis using the SCF Density.

 **********************************************************************

 Orbital symmetries:
       Occupied  (A) (A) (A) (A) (A) (A) (A) (A) (A) (A) (A) (A)
                 (A) (A) (A) (A) (A) (A) (A) (A) (A) (A) (A) (A)
                 (A) (A) (A)
       Virtual   (A) (A) (A) (A) (A) (A) (A) (A) (A) (A) (A) (A)
                 (A) (A) (A) (A) (A) (A) (A) (A) (A) (A) (A) (A)
                 (A) (A) (A)
 The electronic state is 1-A.
 Alpha  occ. eigenvalues --   -1.49132  -1.35580  -1.25900  -1.13376  -1.12345
 Alpha  occ. eigenvalues --   -1.00729  -0.87856  -0.86653  -0.78720  -0.67296
 Alpha  occ. eigenvalues --   -0.64355  -0.61976  -0.56220  -0.55303  -0.54355
 Alpha  occ. eigenvalues --   -0.52746  -0.51784  -0.49820  -0.49419  -0.47425
 Alpha  occ. eigenvalues --   -0.46367  -0.43690  -0.43192  -0.42395  -0.38225
 Alpha  occ. eigenvalues --   -0.34234  -0.31546
 Alpha virt. eigenvalues --   -0.00980   0.00804   0.04414   0.07843   0.11974
 Alpha virt. eigenvalues --    0.13718   0.13920   0.14348   0.14689   0.15158
 Alpha virt. eigenvalues --    0.15522   0.15752   0.16336   0.16548   0.16565
 Alpha virt. eigenvalues --    0.16961   0.17438   0.18115   0.18894   0.19206
 Alpha virt. eigenvalues --    0.19705   0.19758   0.20628   0.21013   0.21269
 Alpha virt. eigenvalues --    0.22092   0.22669
          Condensed to atoms (all electrons):
               1          2          3          4          5          6
     1  C    4.032646   0.000000   0.000000   0.000000   0.000000   0.000000
     2  C    0.000000   4.118746   0.000000   0.000000   0.000000   0.000000
     3  C    0.000000   0.000000   4.034570   0.000000   0.000000   0.000000
     4  C    0.000000   0.000000   0.000000   4.128604   0.000000   0.000000
     5  H    0.000000   0.000000   0.000000   0.000000   0.867532   0.000000
     6  C    0.000000   0.000000   0.000000   0.000000   0.000000   4.056304
     7  C    0.000000   0.000000   0.000000   0.000000   0.000000   0.000000
     8  C    0.000000   0.000000   0.000000   0.000000   0.000000   0.000000
     9  C    0.000000   0.000000   0.000000   0.000000   0.000000   0.000000
    10  H    0.000000   0.000000   0.000000   0.000000   0.000000   0.000000
    11  C    0.000000   0.000000   0.000000   0.000000   0.000000   0.000000
    12  C    0.000000   0.000000   0.000000   0.000000   0.000000   0.000000
    13  C    0.000000   0.000000   0.000000   0.000000   0.000000   0.000000
    14  H    0.000000   0.000000   0.000000   0.000000   0.000000   0.000000
    15  H    0.000000   0.000000   0.000000   0.000000   0.000000   0.000000
    16  H    0.000000   0.000000   0.000000   0.000000   0.000000   0.000000
    17  H    0.000000   0.000000   0.000000   0.000000   0.000000   0.000000
    18  H    0.000000   0.000000   0.000000   0.000000   0.000000   0.000000
    19  H    0.000000   0.000000   0.000000   0.000000   0.000000   0.000000
    20  H    0.000000   0.000000   0.000000   0.000000   0.000000   0.000000
    21  H    0.000000   0.000000   0.000000   0.000000   0.000000   0.000000
               7          8          9         10         11         12
     1  C    0.000000   0.000000   0.000000   0.000000   0.000000   0.000000
     2  C    0.000000   0.000000   0.000000   0.000000   0.000000   0.000000
     3  C    0.000000   0.000000   0.000000   0.000000   0.000000   0.000000
     4  C    0.000000   0.000000   0.000000   0.000000   0.000000   0.000000
     5  H    0.000000   0.000000   0.000000   0.000000   0.000000   0.000000
     6  C    0.000000   0.000000   0.000000   0.000000   0.000000   0.000000
     7  C    4.122407   0.000000   0.000000   0.000000   0.000000   0.000000
     8  C    0.000000   4.118063   0.000000   0.000000   0.000000   0.000000
     9  C    0.000000   0.000000   4.128146   0.000000   0.000000   0.000000
    10  H    0.000000   0.000000   0.000000   0.868907   0.000000   0.000000
    11  C    0.000000   0.000000   0.000000   0.000000   4.181077   0.000000
    12  C    0.000000   0.000000   0.000000   0.000000   0.000000   4.130647
    13  C    0.000000   0.000000   0.000000   0.000000   0.000000   0.000000
    14  H    0.000000   0.000000   0.000000   0.000000   0.000000   0.000000
    15  H    0.000000   0.000000   0.000000   0.000000   0.000000   0.000000
    16  H    0.000000   0.000000   0.000000   0.000000   0.000000   0.000000
    17  H    0.000000   0.000000   0.000000   0.000000   0.000000   0.000000
    18  H    0.000000   0.000000   0.000000   0.000000   0.000000   0.000000
    19  H    0.000000   0.000000   0.000000   0.000000   0.000000   0.000000
    20  H    0.000000   0.000000   0.000000   0.000000   0.000000   0.000000
    21  H    0.000000   0.000000   0.000000   0.000000   0.000000   0.000000
              13         14         15         16         17         18
     1  C    0.000000   0.000000   0.000000   0.000000   0.000000   0.000000
     2  C    0.000000   0.000000   0.000000   0.000000   0.000000   0.000000
     3  C    0.000000   0.000000   0.000000   0.000000   0.000000   0.000000
     4  C    0.000000   0.000000   0.000000   0.000000   0.000000   0.000000
     5  H    0.000000   0.000000   0.000000   0.000000   0.000000   0.000000
     6  C    0.000000   0.000000   0.000000   0.000000   0.000000   0.000000
     7  C    0.000000   0.000000   0.000000   0.000000   0.000000   0.000000
     8  C    0.000000   0.000000   0.000000   0.000000   0.000000   0.000000
     9  C    0.000000   0.000000   0.000000   0.000000   0.000000   0.000000
    10  H    0.000000   0.000000   0.000000   0.000000   0.000000   0.000000
    11  C    0.000000   0.000000   0.000000   0.000000   0.000000   0.000000
    12  C    0.000000   0.000000   0.000000   0.000000   0.000000   0.000000
    13  C    4.123773   0.000000   0.000000   0.000000   0.000000   0.000000
    14  H    0.000000   0.868195   0.000000   0.000000   0.000000   0.000000
    15  H    0.000000   0.000000   0.868278   0.000000   0.000000   0.000000
    16  H    0.000000   0.000000   0.000000   0.868428   0.000000   0.000000
    17  H    0.000000   0.000000   0.000000   0.000000   0.918867   0.000000
    18  H    0.000000   0.000000   0.000000   0.000000   0.000000   0.913664
    19  H    0.000000   0.000000   0.000000   0.000000   0.000000   0.000000
    20  H    0.000000   0.000000   0.000000   0.000000   0.000000   0.000000
    21  H    0.000000   0.000000   0.000000   0.000000   0.000000   0.000000
              19         20         21
     1  C    0.000000   0.000000   0.000000
     2  C    0.000000   0.000000   0.000000
     3  C    0.000000   0.000000   0.000000
     4  C    0.000000   0.000000   0.000000
     5  H    0.000000   0.000000   0.000000
     6  C    0.000000   0.000000   0.000000
     7  C    0.000000   0.000000   0.000000
     8  C    0.000000   0.000000   0.000000
     9  C    0.000000   0.000000   0.000000
    10  H    0.000000   0.000000   0.000000
    11  C    0.000000   0.000000   0.000000
    12  C    0.000000   0.000000   0.000000
    13  C    0.000000   0.000000   0.000000
    14  H    0.000000   0.000000   0.000000
    15  H    0.000000   0.000000   0.000000
    16  H    0.000000   0.000000   0.000000
    17  H    0.000000   0.000000   0.000000
    18  H    0.000000   0.000000   0.000000
    19  H    0.913664   0.000000   0.000000
    20  H    0.000000   0.868869   0.000000
    21  H    0.000000   0.000000   0.868612
 Mulliken charges:
               1
     1  C   -0.032646
     2  C   -0.118746
     3  C   -0.034570
     4  C   -0.128604
     5  H    0.132468
     6  C   -0.056304
     7  C   -0.122407
     8  C   -0.118063
     9  C   -0.128146
    10  H    0.131093
    11  C   -0.181077
    12  C   -0.130647
    13  C   -0.123773
    14  H    0.131805
    15  H    0.131722
    16  H    0.131572
    17  H    0.081133
    18  H    0.086336
    19  H    0.086336
    20  H    0.131131
    21  H    0.131388
 Sum of Mulliken charges =  -0.00000
 Mulliken charges with hydrogens summed into heavy atoms:
               1
     1  C   -0.032646
     2  C    0.013722
     3  C   -0.034570
     4  C    0.002488
     6  C   -0.056304
     7  C    0.009398
     8  C    0.013659
     9  C    0.003426
    11  C    0.072728
    12  C    0.000484
    13  C    0.007615
 Charge=             -0.0000 electrons
 Dipole moment (field-independent basis, Debye):
    X=             -0.0806    Y=              0.2621    Z=             -0.0005  Tot=              0.2742
 N-N= 2.994841056860D+02 E-N=-4.743331794454D+02  KE=-8.691450155478D+01
 1\1\GINC-IISERK51\FOpt\RAM1\ZDO\C11H10\GAUSSIAN\09-Jun-2025\0\\# opt a
 m1 geom=connectivity\\Methyl_Napthalene Optimisation AM1 semi-emperica
 l\\0,1\C,-0.0072411301,-0.4166820375,0.0054085269\C,-0.9856100138,-1.4
 494472011,0.0053762152\C,-0.4442422113,0.9337878057,0.0023210838\C,-2.
 3257460948,-1.1499858744,0.0024928622\H,-0.6512709008,-2.4981044814,0.
 007735424\C,1.3947941153,-0.6948485541,0.0083272791\C,0.5168727856,1.9
 813832568,0.0022198273\C,-1.8381803859,1.216161411,-0.0006039599\C,-2.
 7582887101,0.1975380476,-0.0004871014\H,-3.0781800909,-1.9523213752,0.
 0024645604\C,1.8705807236,-2.0984922068,0.0115791466\C,2.2975588476,0.
 3473802696,0.0080036924\C,1.8578126872,1.6910794769,0.0048677483\H,0.1
 62831006,3.0229948236,-0.000309281\H,-2.161127537,2.2681350747,-0.0029
 375202\H,-3.8365892954,0.4138301832,-0.0027655743\H,2.9873592406,-2.14
 68789394,0.0137088228\H,1.4984562224,-2.6380973464,-0.895314702\H,1.49
 51106066,-2.6349861081,0.9189295345\H,3.3793930761,0.144791321,0.01002
 87069\H,2.607086429,2.496494624,0.0045521384\\Version=EM64L-G16RevB.01
 \State=1-A\HF=0.0538651\RMSD=3.773e-09\RMSF=4.043e-05\Dipole=0.0319407
 ,-0.1030342,0.000047\PG=C01 [X(C11H10)]\\@


 MARY HAD A LITTLE LAMB
      HIS FEET WERE BLACK AS SOOT,
           AND EVERYWHERE THAT MARY WENT
                HIS SOOTY FOOT HE PUT.

                    -- NONAME
 Job cpu time:       0 days  0 hours  0 minutes  1.7 seconds.
 Elapsed time:       0 days  0 hours  0 minutes  1.6 seconds.
 File lengths (MBytes):  RWF=      6 Int=      0 D2E=      0 Chk=      2 Scr=      1
 Normal termination of Gaussian 16 at Mon Jun  9 19:37:45 2025.
