 Entering Gaussian System, Link 0=g16
 Input=/home/gaussian/Documents/program files/Aromaticity/HF3-21G/cycloheptatrienyl_anion/cycloheptatrienyl_anion_opt.com
 Output=/home/gaussian/Documents/program files/Aromaticity/HF3-21G/cycloheptatrienyl_anion/cycloheptatrienyl_anion_opt.log
 Initial command:
 /usr/local/g16/l1.exe "/home/gaussian/tmp/Gau-143446.inp" -scrdir="/home/gaussian/tmp/"
 Entering Link 1 = /usr/local/g16/l1.exe PID=    143449.
  
 Copyright (c) 1988-2017, Gaussian, Inc.  All Rights Reserved.
  
 This is part of the Gaussian(R) 16 program.  It is based on
 the Gaussian(R) 09 system (copyright 2009, Gaussian, Inc.),
 the Gaussian(R) 03 system (copyright 2003, Gaussian, Inc.),
 the Gaussian(R) 98 system (copyright 1998, Gaussian, Inc.),
 the Gaussian(R) 94 system (copyright 1995, Gaussian, Inc.),
 the Gaussian 92(TM) system (copyright 1992, Gaussian, Inc.),
 the Gaussian 90(TM) system (copyright 1990, Gaussian, Inc.),
 the Gaussian 88(TM) system (copyright 1988, Gaussian, Inc.),
 the Gaussian 86(TM) system (copyright 1986, Carnegie Mellon
 University), and the Gaussian 82(TM) system (copyright 1983,
 Carnegie Mellon University). Gaussian is a federally registered
 trademark of Gaussian, Inc.
  
 This software contains proprietary and confidential information,
 including trade secrets, belonging to Gaussian, Inc.
  
 This software is provided under written license and may be
 used, copied, transmitted, or stored only in accord with that
 written license.
  
 The following legend is applicable only to US Government
 contracts under FAR:
  
                    RESTRICTED RIGHTS LEGEND
  
 Use, reproduction and disclosure by the US Government is
 subject to restrictions as set forth in subparagraphs (a)
 and (c) of the Commercial Computer Software - Restricted
 Rights clause in FAR 52.227-19.
  
 Gaussian, Inc.
 340 Quinnipiac St., Bldg. 40, Wallingford CT 06492
  
  
 ---------------------------------------------------------------
 Warning -- This program may not be used in any manner that
 competes with the business of Gaussian, Inc. or will provide
 assistance to any competitor of Gaussian, Inc.  The licensee
 of this program is prohibited from giving any competitor of
 Gaussian, Inc. access to this program.  By using this program,
 the user acknowledges that Gaussian, Inc. is engaged in the
 business of creating and licensing software in the field of
 computational chemistry and represents and warrants to the
 licensee that it is not a competitor of Gaussian, Inc. and that
 it will not use this program in any manner prohibited above.
 ---------------------------------------------------------------
  

 Cite this work as:
 Gaussian 16, Revision B.01,
 M. J. Frisch, G. W. Trucks, H. B. Schlegel, G. E. Scuseria, 
 M. A. Robb, J. R. Cheeseman, G. Scalmani, V. Barone, 
 G. A. Petersson, H. Nakatsuji, X. Li, M. Caricato, A. V. Marenich, 
 J. Bloino, B. G. Janesko, R. Gomperts, B. Mennucci, H. P. Hratchian, 
 J. V. Ortiz, A. F. Izmaylov, J. L. Sonnenberg, D. Williams-Young, 
 F. Ding, F. Lipparini, F. Egidi, J. Goings, B. Peng, A. Petrone, 
 T. Henderson, D. Ranasinghe, V. G. Zakrzewski, J. Gao, N. Rega, 
 G. Zheng, W. Liang, M. Hada, M. Ehara, K. Toyota, R. Fukuda, 
 J. Hasegawa, M. Ishida, T. Nakajima, Y. Honda, O. Kitao, H. Nakai, 
 T. Vreven, K. Throssell, J. A. Montgomery, Jr., J. E. Peralta, 
 F. Ogliaro, M. J. Bearpark, J. J. Heyd, E. N. Brothers, K. N. Kudin, 
 V. N. Staroverov, T. A. Keith, R. Kobayashi, J. Normand, 
 K. Raghavachari, A. P. Rendell, J. C. Burant, S. S. Iyengar, 
 J. Tomasi, M. Cossi, J. M. Millam, M. Klene, C. Adamo, R. Cammi, 
 J. W. Ochterski, R. L. Martin, K. Morokuma, O. Farkas, 
 J. B. Foresman, and D. J. Fox, Gaussian, Inc., Wallingford CT, 2016.
 
 ******************************************
 Gaussian 16:  EM64L-G16RevB.01 20-Dec-2017
                12-Jun-2025 
 ******************************************
 %chk=cycloheptatrienyl_anion_opt.chk
 -----------------------------------------
 # opt freq am1 pop=full geom=connectivity
 -----------------------------------------
 1/18=20,19=15,26=1,38=1,57=2/1,3;
 2/9=110,12=2,17=6,18=5,40=1/2;
 3/5=2,25=1,41=700000,71=1/1,2,3;
 4/35=1/1;
 5/5=2,35=1,38=5/2;
 6/7=3,28=1/1;
 7//1,2,3,16;
 1/18=20,19=15,26=1/3(2);
 2/9=110/2;
 99//99;
 2/9=110/2;
 3/5=2,25=1,41=700000,71=1,135=20/1,2,3;
 4/5=5,16=3,35=1/1;
 5/5=2,35=1,38=5/2;
 7//1,2,3,16;
 1/18=20,19=15,26=1/3(-5);
 2/9=110/2;
 6/7=3,19=2,28=1/1;
 99/9=1/99;
 ------------
 Optimisation
 ------------
 Symbolic Z-matrix:
 Charge = -1 Multiplicity = 1
 C                     0.53525   1.2566    0.21359 
 C                    -0.79004   1.54905   0.01127 
 C                    -1.90662   0.74557  -0.19433 
 C                     1.15724  -0.07327   0.04872 
 C                    -1.9174   -0.68941  -0.01331 
 C                     0.55485  -1.25681  -0.02103 
 C                    -0.90607  -1.55387   0.11303 
 H                     1.21674   2.07283   0.38353 
 H                    -1.01102   2.61142   0.02407 
 H                    -2.85953   1.22607  -0.32938 
 H                    -2.90976  -1.11673   0.0735 
 H                     1.1676   -2.12347  -0.22121 
 H                    -1.13906  -2.58692   0.31906 
 C                     2.67008  -0.00577  -0.11984 
 H                     2.91913   0.59153  -0.99454 
 H                     3.11904   0.48301   0.7433 
 H                     3.11311  -0.99034  -0.2269 
 

 GradGradGradGradGradGradGradGradGradGradGradGradGradGradGradGradGradGrad
 Berny optimization.
 Initialization pass.
                           ----------------------------
                           !    Initial Parameters    !
                           ! (Angstroms and Degrees)  !
 --------------------------                            --------------------------
 ! Name  Definition              Value          Derivative Info.                !
 --------------------------------------------------------------------------------
 ! R1    R(1,2)                  1.3722         estimate D2E/DX2                !
 ! R2    R(1,4)                  1.4774         estimate D2E/DX2                !
 ! R3    R(1,8)                  1.0768         estimate D2E/DX2                !
 ! R4    R(2,3)                  1.3909         estimate D2E/DX2                !
 ! R5    R(2,9)                  1.0852         estimate D2E/DX2                !
 ! R6    R(3,5)                  1.4464         estimate D2E/DX2                !
 ! R7    R(3,10)                 1.0757         estimate D2E/DX2                !
 ! R8    R(4,6)                  1.3299         estimate D2E/DX2                !
 ! R9    R(4,14)                 1.5237         estimate D2E/DX2                !
 ! R10   R(5,7)                  1.3364         estimate D2E/DX2                !
 ! R11   R(5,11)                 1.0839         estimate D2E/DX2                !
 ! R12   R(6,7)                  1.4968         estimate D2E/DX2                !
 ! R13   R(6,12)                 1.0801         estimate D2E/DX2                !
 ! R14   R(7,13)                 1.0789         estimate D2E/DX2                !
 ! R15   R(14,15)                1.0881         estimate D2E/DX2                !
 ! R16   R(14,16)                1.0888         estimate D2E/DX2                !
 ! R17   R(14,17)                1.0849         estimate D2E/DX2                !
 ! A1    A(2,1,4)              125.5936         estimate D2E/DX2                !
 ! A2    A(2,1,8)              118.2266         estimate D2E/DX2                !
 ! A3    A(4,1,8)              115.6892         estimate D2E/DX2                !
 ! A4    A(1,2,3)              132.3784         estimate D2E/DX2                !
 ! A5    A(1,2,9)              113.803          estimate D2E/DX2                !
 ! A6    A(3,2,9)              113.8153         estimate D2E/DX2                !
 ! A7    A(2,3,5)              124.0969         estimate D2E/DX2                !
 ! A8    A(2,3,10)             118.1418         estimate D2E/DX2                !
 ! A9    A(5,3,10)             116.8893         estimate D2E/DX2                !
 ! A10   A(1,4,6)              128.0442         estimate D2E/DX2                !
 ! A11   A(1,4,14)             112.9848         estimate D2E/DX2                !
 ! A12   A(6,4,14)             118.9056         estimate D2E/DX2                !
 ! A13   A(3,5,7)              130.3854         estimate D2E/DX2                !
 ! A14   A(3,5,11)             114.0772         estimate D2E/DX2                !
 ! A15   A(7,5,11)             115.4825         estimate D2E/DX2                !
 ! A16   A(4,6,7)              127.8816         estimate D2E/DX2                !
 ! A17   A(4,6,12)             117.8303         estimate D2E/DX2                !
 ! A18   A(7,6,12)             114.2708         estimate D2E/DX2                !
 ! A19   A(5,7,6)              126.9954         estimate D2E/DX2                !
 ! A20   A(5,7,13)             118.2945         estimate D2E/DX2                !
 ! A21   A(6,7,13)             114.7031         estimate D2E/DX2                !
 ! A22   A(4,14,15)            109.9079         estimate D2E/DX2                !
 ! A23   A(4,14,16)            109.9741         estimate D2E/DX2                !
 ! A24   A(4,14,17)            112.0954         estimate D2E/DX2                !
 ! A25   A(15,14,16)           107.2458         estimate D2E/DX2                !
 ! A26   A(15,14,17)           108.9885         estimate D2E/DX2                !
 ! A27   A(16,14,17)           108.4952         estimate D2E/DX2                !
 ! D1    D(4,1,2,3)             10.4079         estimate D2E/DX2                !
 ! D2    D(4,1,2,9)           -170.3108         estimate D2E/DX2                !
 ! D3    D(8,1,2,3)           -177.9995         estimate D2E/DX2                !
 ! D4    D(8,1,2,9)              1.2819         estimate D2E/DX2                !
 ! D5    D(2,1,4,6)            -16.4336         estimate D2E/DX2                !
 ! D6    D(2,1,4,14)           160.5584         estimate D2E/DX2                !
 ! D7    D(8,1,4,6)            171.7851         estimate D2E/DX2                !
 ! D8    D(8,1,4,14)           -11.2228         estimate D2E/DX2                !
 ! D9    D(1,2,3,5)             10.961          estimate D2E/DX2                !
 ! D10   D(1,2,3,10)           179.9179         estimate D2E/DX2                !
 ! D11   D(9,2,3,5)           -168.3203         estimate D2E/DX2                !
 ! D12   D(9,2,3,10)             0.6366         estimate D2E/DX2                !
 ! D13   D(2,3,5,7)            -14.3655         estimate D2E/DX2                !
 ! D14   D(2,3,5,11)           162.778          estimate D2E/DX2                !
 ! D15   D(10,3,5,7)           176.551          estimate D2E/DX2                !
 ! D16   D(10,3,5,11)           -6.3055         estimate D2E/DX2                !
 ! D17   D(1,4,6,7)             -3.1024         estimate D2E/DX2                !
 ! D18   D(1,4,6,12)           175.291          estimate D2E/DX2                !
 ! D19   D(14,4,6,7)          -179.939          estimate D2E/DX2                !
 ! D20   D(14,4,6,12)           -1.5456         estimate D2E/DX2                !
 ! D21   D(1,4,14,15)          -59.3683         estimate D2E/DX2                !
 ! D22   D(1,4,14,16)           58.4794         estimate D2E/DX2                !
 ! D23   D(1,4,14,17)          179.2654         estimate D2E/DX2                !
 ! D24   D(6,4,14,15)          117.926          estimate D2E/DX2                !
 ! D25   D(6,4,14,16)         -124.2264         estimate D2E/DX2                !
 ! D26   D(6,4,14,17)           -3.4403         estimate D2E/DX2                !
 ! D27   D(3,5,7,6)             -5.7803         estimate D2E/DX2                !
 ! D28   D(3,5,7,13)           175.2358         estimate D2E/DX2                !
 ! D29   D(11,5,7,6)           177.1088         estimate D2E/DX2                !
 ! D30   D(11,5,7,13)           -1.8752         estimate D2E/DX2                !
 ! D31   D(4,6,7,5)             18.61           estimate D2E/DX2                !
 ! D32   D(4,6,7,13)          -162.3748         estimate D2E/DX2                !
 ! D33   D(12,6,7,5)          -159.8315         estimate D2E/DX2                !
 ! D34   D(12,6,7,13)           19.1837         estimate D2E/DX2                !
 --------------------------------------------------------------------------------
 Trust Radius=3.00D-01 FncErr=1.00D-07 GrdErr=1.00D-07 EigMax=2.50D+02 EigMin=1.00D-04
 Number of steps in this run=     88 maximum allowed number of steps=    102.
 GradGradGradGradGradGradGradGradGradGradGradGradGradGradGradGradGradGrad

                          Input orientation:                          
 ---------------------------------------------------------------------
 Center     Atomic      Atomic             Coordinates (Angstroms)
 Number     Number       Type             X           Y           Z
 ---------------------------------------------------------------------
      1          6           0        0.535249    1.256596    0.213585
      2          6           0       -0.790037    1.549050    0.011266
      3          6           0       -1.906623    0.745571   -0.194327
      4          6           0        1.157241   -0.073265    0.048720
      5          6           0       -1.917404   -0.689412   -0.013310
      6          6           0        0.554853   -1.256807   -0.021031
      7          6           0       -0.906068   -1.553866    0.113032
      8          1           0        1.216735    2.072830    0.383529
      9          1           0       -1.011022    2.611415    0.024069
     10          1           0       -2.859526    1.226071   -0.329377
     11          1           0       -2.909757   -1.116730    0.073503
     12          1           0        1.167601   -2.123470   -0.221208
     13          1           0       -1.139059   -2.586920    0.319057
     14          6           0        2.670080   -0.005768   -0.119841
     15          1           0        2.919127    0.591532   -0.994539
     16          1           0        3.119042    0.483012    0.743298
     17          1           0        3.113111   -0.990336   -0.226895
 ---------------------------------------------------------------------
                    Distance matrix (angstroms):
                    1          2          3          4          5
     1  C    0.000000
     2  C    1.372168   0.000000
     3  C    2.527900   1.390903   0.000000
     4  C    1.477357   2.534798   3.180696   0.000000
     5  C    3.139098   2.506446   1.446395   3.136388   0.000000
     6  C    2.524406   3.111689   3.177800   1.329853   2.536543
     7  C    3.160095   3.106752   2.526458   2.540386   1.336429
     8  H    1.076820   2.107145   3.442514   2.172869   4.196462
     9  H    2.064559   1.085181   2.081147   3.451011   3.423213
    10  H    3.438057   2.122060   1.075706   4.238590   2.157908
    11  H    4.185734   3.406387   2.132176   4.198798   1.083929
    12  H    3.466087   4.168188   4.205113   2.067924   3.408372
    13  H    4.193691   4.162067   3.458065   3.415339   2.077697
    14  C    2.502447   3.795663   4.638563   1.523696   4.639367
    15  H    2.754042   3.960604   4.894071   2.152809   5.098594
    16  H    2.748639   4.117427   5.119120   2.154193   5.226167
    17  H    3.447912   4.662592   5.311512   2.177708   5.044032
                    6          7          8          9         10
     6  C    0.000000
     7  C    1.496832   0.000000
     8  H    3.418807   4.210984   0.000000
     9  H    4.173385   4.167553   2.319954   0.000000
    10  H    4.232936   3.426335   4.223877   2.336893   0.000000
    11  H    3.468729   2.051200   5.224686   4.184101   2.377720
    12  H    1.080109   2.176297   4.239936   5.217825   5.239168
    13  H    2.180412   1.078857   5.221800   5.208272   4.233128
    14  C    2.459481   3.903802   2.585762   4.518946   5.669028
    15  H    3.154975   4.523446   2.644136   4.534706   5.851317
    16  H    3.191588   4.554955   2.505140   4.701576   6.119317
    17  H    2.580324   4.072704   3.654018   5.481247   6.371448
                   11         12         13         14         15
    11  H    0.000000
    12  H    4.210134   0.000000
    13  H    2.314547   2.413991   0.000000
    14  C    5.692644   2.598534   4.622177   0.000000
    15  H    6.167233   3.322216   5.319489   1.088066   0.000000
    16  H    6.273294   3.395901   5.266487   1.088798   1.752661
    17  H    6.031679   2.251452   4.574723   1.084948   1.768958
                   16         17
    16  H    0.000000
    17  H    1.764104   0.000000
 Stoichiometry    C8H9(1-)
 Framework group  C1[X(C8H9)]
 Deg. of freedom    45
 Full point group                 C1      NOp   1
 Largest Abelian subgroup         C1      NOp   1
 Largest concise Abelian subgroup C1      NOp   1
                         Standard orientation:                         
 ---------------------------------------------------------------------
 Center     Atomic      Atomic             Coordinates (Angstroms)
 Number     Number       Type             X           Y           Z
 ---------------------------------------------------------------------
      1          6           0        0.535249   -1.256596   -0.213585
      2          6           0       -0.790037   -1.549050   -0.011266
      3          6           0       -1.906623   -0.745571    0.194327
      4          6           0        1.157241    0.073265   -0.048720
      5          6           0       -1.917404    0.689412    0.013310
      6          6           0        0.554853    1.256807    0.021031
      7          6           0       -0.906068    1.553866   -0.113032
      8          1           0        1.216735   -2.072830   -0.383529
      9          1           0       -1.011022   -2.611415   -0.024069
     10          1           0       -2.859526   -1.226071    0.329377
     11          1           0       -2.909757    1.116730   -0.073503
     12          1           0        1.167601    2.123470    0.221208
     13          1           0       -1.139059    2.586920   -0.319057
     14          6           0        2.670080    0.005768    0.119841
     15          1           0        2.919127   -0.591532    0.994539
     16          1           0        3.119042   -0.483012   -0.743298
     17          1           0        3.113111    0.990336    0.226895
 ---------------------------------------------------------------------
 Rotational constants (GHZ):           3.6533743           1.8911376           1.2672387
 Standard basis: VSTO-6G (5D, 7F)
 There are    41 symmetry adapted cartesian basis functions of A   symmetry.
 There are    41 symmetry adapted basis functions of A   symmetry.
    41 basis functions,   246 primitive gaussians,    41 cartesian basis functions
    21 alpha electrons       21 beta electrons
       nuclear repulsion energy       190.6809838663 Hartrees.
 Integral buffers will be    131072 words long.
 Regular integral format.
 Two-electron integral symmetry is turned off.
 Do NDO integrals.
 One-electron integrals computed using PRISM.
 NBasis=    41 RedAO= F EigKep=  0.00D+00  NBF=    41
 NBsUse=    41 1.00D-04 EigRej=  0.00D+00 NBFU=    41
 Simple Huckel Guess.
 Keep J ints in memory in canonical form, NReq=863514.
 Overlap will be assumed to be unity.
 Requested convergence on RMS density matrix=1.00D-08 within 128 cycles.
 Requested convergence on MAX density matrix=1.00D-06.
 Requested convergence on             energy=1.00D-06.
 No special actions if energy rises.
 SCF Done:  E(RAM1) =  0.623351542239E-01 A.U. after   16 cycles
            NFock= 15  Conv=0.34D-08     -V/T= 1.0010

 **********************************************************************

            Population analysis using the SCF Density.

 **********************************************************************

 Orbital symmetries:
       Occupied  (A) (A) (A) (A) (A) (A) (A) (A) (A) (A) (A) (A)
                 (A) (A) (A) (A) (A) (A) (A) (A) (A)
       Virtual   (A) (A) (A) (A) (A) (A) (A) (A) (A) (A) (A) (A)
                 (A) (A) (A) (A) (A) (A) (A) (A)
 The electronic state is 1-A.
 Alpha  occ. eigenvalues --   -1.20746  -1.07365  -1.00703  -0.87099  -0.76247
 Alpha  occ. eigenvalues --   -0.68314  -0.49531  -0.47935  -0.44573  -0.37527
 Alpha  occ. eigenvalues --   -0.36021  -0.34870  -0.34428  -0.29268  -0.28074
 Alpha  occ. eigenvalues --   -0.27599  -0.24357  -0.22750  -0.18510  -0.18413
 Alpha  occ. eigenvalues --   -0.04428
 Alpha virt. eigenvalues --    0.19785   0.26964   0.28678   0.30547   0.31422
 Alpha virt. eigenvalues --    0.31664   0.32519   0.33200   0.33677   0.34486
 Alpha virt. eigenvalues --    0.35714   0.36825   0.37544   0.38333   0.39322
 Alpha virt. eigenvalues --    0.40890   0.41870   0.42088   0.43116   0.43312
     Molecular Orbital Coefficients:
                           1         2         3         4         5
                           O         O         O         O         O
     Eigenvalues --    -1.20746  -1.07365  -1.00703  -0.87099  -0.76247
   1 1   C  1S          0.33113  -0.05669   0.38640  -0.22437   0.41269
   2        1PX        -0.02958  -0.11752  -0.11325   0.06314   0.04339
   3        1PY         0.07223  -0.06588  -0.05335  -0.01518  -0.05552
   4        1PZ         0.02234  -0.00106   0.02132  -0.00663  -0.00183
   5 2   C  1S          0.29933   0.23110   0.49743  -0.09343  -0.05897
   6        1PX         0.02893  -0.08493   0.05106  -0.14083   0.29081
   7        1PY         0.06571   0.04802   0.00896   0.02579  -0.05243
   8        1PZ        -0.00186   0.00871  -0.00625   0.02052  -0.04734
   9 3   C  1S          0.26155   0.37271   0.20354   0.25244  -0.40841
  10        1PX         0.06688   0.03727   0.09095  -0.05557   0.01114
  11        1PY         0.02859   0.05440  -0.13608   0.08007   0.09153
  12        1PZ        -0.01992  -0.02357  -0.01346  -0.00726   0.00228
  13 4   C  1S          0.44894  -0.36681  -0.00974  -0.11793  -0.06474
  14        1PX        -0.03167  -0.10737   0.00183   0.24440   0.01373
  15        1PY         0.02769  -0.02969  -0.16527  -0.07064  -0.28543
  16        1PZ         0.00662  -0.01255  -0.00998   0.01694  -0.02764
  17 5   C  1S          0.29464   0.42491  -0.24564   0.28738   0.15160
  18        1PX         0.07263   0.03949  -0.07225  -0.06366   0.06494
  19        1PY        -0.01016  -0.02627  -0.14422  -0.06382   0.24391
  20        1PZ        -0.00266  -0.00099   0.01413   0.00749  -0.03395
  21 6   C  1S          0.38273  -0.14394  -0.31025  -0.36401  -0.32230
  22        1PX        -0.00164  -0.13759   0.06875   0.03227  -0.14036
  23        1PY        -0.09487   0.07645  -0.03358   0.03141   0.03020
  24        1PZ        -0.00701  -0.00201   0.00499   0.01053  -0.01176
  25 7   C  1S          0.30962   0.25450  -0.43002  -0.08521   0.26157
  26        1PX         0.01663  -0.11594   0.00433  -0.17933  -0.18625
  27        1PY        -0.07556  -0.06622   0.02656  -0.03578   0.00586
  28        1PZ         0.01166   0.00873  -0.01090   0.00076  -0.00778
  29 8   H  1S          0.10467  -0.03805   0.14252  -0.06072   0.21363
  30 9   H  1S          0.09047   0.07946   0.19177  -0.03595  -0.02916
  31 10  H  1S          0.07552   0.12583   0.07354   0.11162  -0.19984
  32 11  H  1S          0.08843   0.15014  -0.09417   0.13482   0.08146
  33 12  H  1S          0.12267  -0.06776  -0.12082  -0.12241  -0.16465
  34 13  H  1S          0.09250   0.08432  -0.16292  -0.03435   0.13339
  35 14  C  1S          0.26731  -0.42120   0.00521   0.53307   0.05351
  36        1PX        -0.08270   0.07283  -0.00014   0.07235   0.02524
  37        1PY         0.00671  -0.00886  -0.03166  -0.01498  -0.08146
  38        1PZ        -0.00806   0.00819  -0.00222   0.00551  -0.00572
  39 15  H  1S          0.09440  -0.15395   0.01174   0.23004   0.05112
  40 16  H  1S          0.09374  -0.15453   0.01194   0.23173   0.05498
  41 17  H  1S          0.09727  -0.15952  -0.01491   0.22225  -0.01802
                           6         7         8         9        10
                           O         O         O         O         O
     Eigenvalues --    -0.68314  -0.49531  -0.47935  -0.44573  -0.37527
   1 1   C  1S          0.14119  -0.06253   0.25722   0.00399  -0.00269
   2        1PX         0.18062  -0.24639   0.05755   0.21715  -0.00418
   3        1PY         0.17590  -0.20037  -0.20630  -0.12638   0.00748
   4        1PZ        -0.00318   0.00734  -0.04452  -0.03096   0.12967
   5 2   C  1S         -0.32227   0.17951  -0.19169  -0.01111   0.00139
   6        1PX         0.04101   0.20205   0.21200  -0.12576   0.02140
   7        1PY         0.11148  -0.18780   0.02796  -0.26919   0.01644
   8        1PZ        -0.00257  -0.05401  -0.04691   0.01351   0.06547
   9 3   C  1S          0.10009  -0.26734   0.10913   0.03985   0.00313
  10        1PX        -0.12281   0.02794  -0.21267  -0.25134   0.00661
  11        1PY         0.21480   0.12468   0.22440  -0.20323   0.00193
  12        1PZ         0.00275  -0.02672   0.01747   0.03618   0.03643
  13 4   C  1S          0.36055  -0.06605  -0.29271   0.10152  -0.00014
  14        1PX        -0.07363   0.02539  -0.06261   0.25202   0.00905
  15        1PY        -0.08774   0.31931  -0.05489  -0.03688  -0.06067
  16        1PZ        -0.01904   0.05160  -0.02019  -0.00908   0.28590
  17 5   C  1S          0.26458   0.26846   0.04660  -0.04614  -0.00208
  18        1PX        -0.13217  -0.17591  -0.18497  -0.27344  -0.01166
  19        1PY        -0.12840   0.12414  -0.25892   0.16456   0.00738
  20        1PZ         0.01876  -0.01936   0.05854  -0.01987   0.04022
  21 6   C  1S         -0.11337   0.10045   0.22954  -0.03238  -0.00188
  22        1PX         0.14480   0.29579  -0.05137   0.17438  -0.00037
  23        1PY        -0.22790  -0.04881   0.31141   0.16776   0.03752
  24        1PZ        -0.00408   0.04517   0.02957   0.00495   0.17206
  25 7   C  1S         -0.29997  -0.23666  -0.11385   0.04103  -0.00186
  26        1PX        -0.12465  -0.18589   0.26550  -0.10452  -0.00702
  27        1PY        -0.12760  -0.11581   0.04757   0.33734   0.02996
  28        1PZ         0.00773   0.02276   0.02910  -0.05053   0.06107
  29 8   H  1S          0.04892  -0.04064   0.26465   0.16342  -0.02685
  30 9   H  1S         -0.20437   0.18280  -0.14268   0.20376  -0.01673
  31 10  H  1S          0.05181  -0.18605   0.11585   0.23864   0.00042
  32 11  H  1S          0.15492   0.27397   0.07216   0.20533   0.00738
  33 12  H  1S         -0.11486   0.14153   0.27801   0.14539   0.04618
  34 13  H  1S         -0.18718  -0.17139  -0.06400   0.27284   0.01436
  35 14  C  1S         -0.23490   0.00319   0.02007  -0.05742   0.00080
  36        1PX        -0.19095   0.03556   0.21538  -0.27153  -0.11572
  37        1PY        -0.02546   0.19080  -0.03440  -0.00958  -0.09727
  38        1PZ        -0.02493   0.03141   0.01494  -0.05536   0.64872
  39 15  H  1S         -0.12822  -0.05063   0.06916  -0.10073   0.46103
  40 16  H  1S         -0.12659  -0.06873   0.08010  -0.07161  -0.43677
  41 17  H  1S         -0.16552   0.14289   0.06402  -0.11557  -0.05736
                          11        12        13        14        15
                           O         O         O         O         O
     Eigenvalues --    -0.36021  -0.34870  -0.34428  -0.29268  -0.28074
   1 1   C  1S          0.10878  -0.01377   0.04717   0.09986   0.02075
   2        1PX        -0.14642   0.11737   0.21148   0.24420  -0.08637
   3        1PY         0.10522  -0.16725  -0.23514   0.06377  -0.28938
   4        1PZ         0.02177  -0.01198  -0.06548  -0.02315  -0.17918
   5 2   C  1S         -0.02021   0.01318  -0.11928  -0.04550  -0.05039
   6        1PX         0.11197  -0.07296  -0.04280  -0.26443   0.07184
   7        1PY         0.31524   0.07692  -0.26709   0.17763   0.14004
   8        1PZ        -0.00790   0.02512  -0.00433   0.08778  -0.16998
   9 3   C  1S          0.08337   0.02660   0.04968   0.02070   0.09389
  10        1PX         0.06296   0.25965  -0.23276   0.13464  -0.02435
  11        1PY         0.01377   0.14044  -0.04476  -0.35442   0.03341
  12        1PZ        -0.01053  -0.02539   0.05725   0.03825  -0.14371
  13 4   C  1S          0.01397  -0.03441  -0.00795  -0.07665  -0.03963
  14        1PX         0.03063   0.41334  -0.02206  -0.24139  -0.00044
  15        1PY        -0.03025  -0.06162   0.12119  -0.07309   0.37376
  16        1PZ        -0.00135   0.04563   0.01527  -0.00988  -0.09575
  17 5   C  1S         -0.08131   0.06781  -0.02759  -0.00115  -0.05290
  18        1PX        -0.04892   0.32296   0.24162   0.08776   0.16471
  19        1PY        -0.04179  -0.11581   0.00026   0.36416  -0.08279
  20        1PZ        -0.01085   0.04623   0.02367  -0.01994  -0.17865
  21 6   C  1S         -0.12584  -0.02426  -0.02735   0.05888  -0.01557
  22        1PX         0.11388   0.12094  -0.12798   0.25395   0.29529
  23        1PY         0.07616   0.30458  -0.21007   0.08662  -0.20569
  24        1PZ        -0.00157   0.09199  -0.02110   0.10150  -0.16054
  25 7   C  1S          0.03951   0.00373   0.09228  -0.07801   0.02475
  26        1PX        -0.09074  -0.07522   0.00767  -0.29082  -0.24628
  27        1PY         0.28557  -0.17155  -0.24257  -0.13789   0.11663
  28        1PZ        -0.06847   0.08165   0.04218   0.07424  -0.23897
  29 8   H  1S         -0.08877   0.14900   0.27459   0.16905   0.19632
  30 9   H  1S         -0.28451  -0.04282   0.15961  -0.14300  -0.17993
  31 10  H  1S          0.00043  -0.21798   0.21481   0.05043   0.05207
  32 11  H  1S         -0.02354  -0.25344  -0.20789   0.05360  -0.20541
  33 12  H  1S          0.04962   0.25412  -0.20931   0.26236  -0.05653
  34 13  H  1S          0.27104  -0.13070  -0.14636  -0.13714   0.21388
  35 14  C  1S          0.00226   0.00576  -0.00499  -0.07076  -0.01481
  36        1PX        -0.01585  -0.36763   0.03344   0.30874   0.04403
  37        1PY         0.50440   0.03471   0.35882  -0.00730  -0.20135
  38        1PZ         0.04667  -0.09029   0.10758   0.02438   0.08170
  39 15  H  1S         -0.20925  -0.14484  -0.08944   0.04390   0.18274
  40 16  H  1S         -0.23572  -0.07273  -0.20285   0.06481   0.03871
  41 17  H  1S          0.40807  -0.09242   0.30329   0.09208  -0.18228
                          16        17        18        19        20
                           O         O         O         O         O
     Eigenvalues --    -0.27599  -0.24357  -0.22750  -0.18510  -0.18413
   1 1   C  1S          0.01629  -0.04345  -0.00335  -0.00660  -0.00542
   2        1PX        -0.21722   0.27568   0.08023   0.04691   0.06751
   3        1PY        -0.08141  -0.18525   0.28109  -0.04124  -0.04990
   4        1PZ         0.25098   0.10593  -0.00069   0.38388   0.33569
   5 2   C  1S         -0.02923   0.00565  -0.03300   0.00108  -0.02333
   6        1PX         0.29996  -0.20876  -0.00364   0.10955  -0.00129
   7        1PY         0.02967  -0.01201  -0.32513  -0.02835  -0.02577
   8        1PZ         0.21550   0.23790  -0.03867   0.52737   0.05338
   9 3   C  1S          0.05693   0.03174  -0.00619   0.00945  -0.00623
  10        1PX        -0.21019   0.34490  -0.09897   0.04645  -0.05432
  11        1PY        -0.01594   0.17361   0.28485   0.01653  -0.01092
  12        1PZ         0.32400   0.13786  -0.01352   0.35099  -0.29260
  13 4   C  1S         -0.00602   0.01021   0.06708  -0.01775  -0.01136
  14        1PX         0.00968  -0.12147  -0.22176   0.03163  -0.05974
  15        1PY         0.11170   0.14360  -0.18655   0.00225  -0.05651
  16        1PZ         0.23810   0.13014  -0.07110  -0.20013   0.49156
  17 5   C  1S         -0.05026   0.01628   0.05563   0.02045  -0.00990
  18        1PX         0.14734  -0.13850   0.21112   0.02288   0.00266
  19        1PY         0.08973  -0.16614  -0.24101  -0.01045  -0.09235
  20        1PZ         0.30322   0.22763   0.03999  -0.15376  -0.48462
  21 6   C  1S         -0.03071   0.00654  -0.06235   0.01425   0.00607
  22        1PX         0.10828  -0.00536   0.26128   0.05845  -0.03522
  23        1PY        -0.08571  -0.21843   0.09806   0.07575  -0.04939
  24        1PZ         0.26119   0.10852   0.01868  -0.42630   0.35269
  25 7   C  1S          0.04150  -0.02810  -0.02415  -0.00939   0.00577
  26        1PX        -0.17623   0.04871  -0.22747   0.01067   0.00899
  27        1PY         0.03896   0.28255   0.12452  -0.10140  -0.05251
  28        1PZ         0.28147   0.13130  -0.03432  -0.39503  -0.33917
  29 8   H  1S         -0.09247   0.26618  -0.16851  -0.00899   0.02693
  30 9   H  1S         -0.11144   0.06056   0.33406  -0.00032   0.00635
  31 10  H  1S          0.25388  -0.33421  -0.04677   0.00667   0.01046
  32 11  H  1S         -0.15858   0.06426  -0.28837   0.00633  -0.01104
  33 12  H  1S          0.00539  -0.16530   0.21416   0.03557   0.01494
  34 13  H  1S          0.04814   0.22769   0.17279  -0.03979   0.02216
  35 14  C  1S          0.00807  -0.03470  -0.06187  -0.00574  -0.00853
  36        1PX        -0.01196   0.13325   0.22303   0.00595   0.03071
  37        1PY        -0.09285   0.01317  -0.01177  -0.00168   0.01604
  38        1PZ        -0.16173  -0.03279   0.03306   0.03213  -0.11002
  39 15  H  1S         -0.08152  -0.02564   0.04202   0.04495  -0.13474
  40 16  H  1S          0.17526   0.06796   0.02464  -0.04678   0.12621
  41 17  H  1S         -0.10763   0.03214   0.06954   0.00488   0.01602
                          21        22        23        24        25
                           O         V         V         V         V
     Eigenvalues --    -0.04428   0.19785   0.26964   0.28678   0.30547
   1 1   C  1S          0.01309  -0.00247  -0.02885   0.02618   0.09203
   2        1PX        -0.07354   0.02411   0.04772  -0.05387   0.03887
   3        1PY         0.07656  -0.01681  -0.07016   0.06985   0.11617
   4        1PZ        -0.55668   0.17215   0.30839  -0.34230   0.05595
   5 2   C  1S         -0.01129  -0.00120   0.03530   0.01631  -0.04973
   6        1PX        -0.00638  -0.09841  -0.02682   0.04387  -0.02588
   7        1PY        -0.01066   0.02427   0.00356  -0.01748   0.04503
   8        1PZ        -0.01735  -0.43759  -0.22025   0.54202  -0.03582
   9 3   C  1S          0.01877   0.00136  -0.00734  -0.04934   0.00323
  10        1PX         0.09421   0.01276  -0.00909  -0.09736   0.00337
  11        1PY         0.04031  -0.00132  -0.01087  -0.04850   0.01081
  12        1PZ         0.60552   0.07729  -0.03615  -0.47866   0.01595
  13 4   C  1S         -0.01334  -0.00802   0.01485  -0.06231  -0.01501
  14        1PX        -0.00950  -0.04456   0.06142  -0.05720   0.02906
  15        1PY        -0.02444  -0.06707   0.00685   0.00804   0.11506
  16        1PZ         0.15907   0.47073  -0.43630   0.07407  -0.00672
  17 5   C  1S         -0.01047   0.00875  -0.01829   0.04157  -0.01171
  18        1PX        -0.01077   0.00755  -0.01052  -0.03912   0.01395
  19        1PY        -0.01256   0.08864   0.03544   0.03932   0.00794
  20        1PZ        -0.08857   0.46032   0.35858   0.43440   0.00426
  21 6   C  1S         -0.00649   0.00732  -0.01445  -0.00642  -0.03998
  22        1PX        -0.04087   0.05515  -0.06119  -0.02201   0.03286
  23        1PY        -0.02697   0.04609  -0.09709  -0.02633   0.09935
  24        1PZ         0.30091  -0.42243   0.45792   0.02709   0.03653
  25 7   C  1S         -0.00504  -0.00352  -0.00298  -0.01075   0.04003
  26        1PX         0.02405   0.01401   0.02111   0.00034   0.03842
  27        1PY        -0.06749  -0.05458  -0.10810  -0.06699   0.01253
  28        1PZ        -0.40166  -0.32276  -0.40333  -0.29145  -0.01779
  29 8   H  1S         -0.00472   0.01348  -0.01295   0.01265   0.00349
  30 9   H  1S          0.03831  -0.00150  -0.04411  -0.01761   0.08601
  31 10  H  1S         -0.01123  -0.00793  -0.00377  -0.00137   0.00192
  32 11  H  1S          0.03792   0.00171   0.02207  -0.06235   0.02148
  33 12  H  1S          0.02603   0.01204   0.05958   0.04269  -0.05809
  34 13  H  1S          0.01534  -0.01830   0.05172   0.02473  -0.04655
  35 14  C  1S          0.01610  -0.00478  -0.01516   0.04303   0.06651
  36        1PX        -0.03317  -0.00127   0.04635  -0.09157   0.10993
  37        1PY        -0.00008  -0.00873  -0.01173   0.03447   0.66575
  38        1PZ        -0.00017   0.04475  -0.19823   0.08507   0.03968
  39 15  H  1S         -0.02776  -0.10366   0.18013  -0.05771   0.22461
  40 16  H  1S          0.02307   0.09399  -0.19661   0.08273   0.20271
  41 17  H  1S         -0.00844   0.01175   0.02248  -0.03687  -0.60670
                          26        27        28        29        30
                           V         V         V         V         V
     Eigenvalues --     0.31422   0.31664   0.32519   0.33200   0.33677
   1 1   C  1S          0.00016  -0.03016   0.03793  -0.03101   0.11584
   2        1PX         0.06493  -0.00142   0.00474  -0.03886   0.04836
   3        1PY        -0.03063  -0.04055   0.04975  -0.06268   0.22543
   4        1PZ        -0.03294   0.14737   0.06241  -0.02326   0.05446
   5 2   C  1S          0.05689   0.00474  -0.02987  -0.05051  -0.24584
   6        1PX         0.07060  -0.02274  -0.04114   0.03372   0.08599
   7        1PY        -0.02458  -0.01291   0.04735  -0.07649   0.35749
   8        1PZ         0.02170  -0.11093  -0.03859   0.01059   0.00547
   9 3   C  1S         -0.01139   0.00520   0.00477  -0.03297   0.01520
  10        1PX         0.01607   0.00578  -0.01498   0.06997   0.09062
  11        1PY        -0.01222  -0.00080   0.01332  -0.07751   0.11443
  12        1PZ        -0.03966   0.05955   0.03417  -0.02193  -0.06364
  13 4   C  1S          0.27004  -0.05771  -0.18773  -0.02956  -0.22962
  14        1PX         0.42934  -0.12140  -0.13697  -0.12781   0.04217
  15        1PY         0.02438   0.00121  -0.02738  -0.05654   0.15381
  16        1PZ        -0.02839  -0.28583  -0.07553   0.03201  -0.02953
  17 5   C  1S         -0.04557  -0.01050   0.06753  -0.20798  -0.16951
  18        1PX         0.08104  -0.01050  -0.09682   0.31445   0.19892
  19        1PY        -0.04719  -0.00797   0.06946  -0.23390   0.04951
  20        1PZ         0.05426  -0.00653  -0.02835   0.01839   0.04051
  21 6   C  1S         -0.07159  -0.02217   0.16396  -0.23846   0.12323
  22        1PX         0.18191  -0.09737  -0.10427   0.01922   0.20435
  23        1PY         0.08190  -0.07490  -0.07193  -0.24390   0.09311
  24        1PZ         0.09252   0.13405   0.00872  -0.09624   0.07464
  25 7   C  1S          0.13170  -0.04088  -0.12480  -0.02635   0.01815
  26        1PX         0.17762  -0.04338  -0.14068   0.13291   0.03972
  27        1PY        -0.03800  -0.03005   0.02299  -0.26103  -0.00069
  28        1PZ        -0.03977  -0.02630  -0.00294   0.10781  -0.03676
  29 8   H  1S         -0.07852   0.01702   0.02617   0.00675   0.04088
  30 9   H  1S         -0.05797  -0.02200   0.06016  -0.02484   0.51601
  31 10  H  1S          0.02878  -0.00895  -0.01782   0.06434   0.13142
  32 11  H  1S          0.13385   0.00101  -0.16291   0.49435   0.26736
  33 12  H  1S         -0.11815   0.10309  -0.00636   0.37442  -0.27331
  34 13  H  1S         -0.05200   0.05323   0.05707   0.29960  -0.01206
  35 14  C  1S         -0.04624  -0.06100   0.56555   0.14632   0.00936
  36        1PX         0.56309  -0.29678   0.07401  -0.02568  -0.14028
  37        1PY        -0.12875   0.03096  -0.08250   0.03385  -0.12441
  38        1PZ         0.31197   0.58772   0.08851  -0.04342   0.00968
  39 15  H  1S         -0.34573  -0.28101  -0.46782  -0.04598  -0.03684
  40 16  H  1S         -0.00315   0.53366  -0.35681  -0.09498   0.00165
  41 17  H  1S         -0.08304   0.06372  -0.32363  -0.11337   0.12294
                          31        32        33        34        35
                           V         V         V         V         V
     Eigenvalues --     0.34486   0.35714   0.36825   0.37544   0.38333
   1 1   C  1S          0.16177  -0.23307  -0.29707  -0.12526   0.19673
   2        1PX         0.11529  -0.04899  -0.09591   0.13923   0.29237
   3        1PY         0.00077   0.12053   0.20517  -0.31908  -0.04271
   4        1PZ        -0.01283   0.01033   0.03670  -0.09546  -0.02037
   5 2   C  1S          0.07391   0.05888   0.25719  -0.01961   0.07836
   6        1PX        -0.05595   0.05034  -0.03252   0.22292  -0.04081
   7        1PY        -0.20574   0.31777  -0.13054  -0.02564   0.02217
   8        1PZ        -0.01403  -0.00184  -0.00816   0.00328  -0.01701
   9 3   C  1S         -0.11316  -0.26771  -0.24159   0.05974  -0.29564
  10        1PX         0.03635   0.05855   0.04887   0.32035   0.26644
  11        1PY        -0.18486   0.03547   0.11041   0.20515   0.03307
  12        1PZ         0.02539   0.01609   0.00245  -0.10289  -0.00228
  13 4   C  1S         -0.17352   0.13106   0.06886   0.13885  -0.18418
  14        1PX         0.07367   0.15961  -0.25908  -0.00766  -0.02013
  15        1PY        -0.08491  -0.00500   0.01834  -0.23289   0.10807
  16        1PZ         0.00406   0.02872  -0.04009  -0.00137   0.00679
  17 5   C  1S          0.18606   0.22000   0.03886  -0.09701   0.21160
  18        1PX         0.14651  -0.10287   0.21530   0.20871  -0.08206
  19        1PY        -0.09361   0.06691  -0.10002   0.17043  -0.04926
  20        1PZ         0.00397  -0.03136   0.02161   0.01082  -0.00930
  21 6   C  1S          0.32087  -0.05850  -0.02472   0.21874  -0.15782
  22        1PX         0.15929  -0.18956   0.11900  -0.30608   0.17183
  23        1PY         0.12903  -0.02990   0.25988   0.01153  -0.23944
  24        1PZ         0.02862  -0.04531   0.06763  -0.03287  -0.00174
  25 7   C  1S         -0.31132  -0.27175   0.04065  -0.23070   0.14976
  26        1PX         0.06710   0.10132   0.05913  -0.26320   0.27203
  27        1PY        -0.20456  -0.18889   0.19681   0.23151   0.17242
  28        1PZ         0.04156   0.05523  -0.05250  -0.06790  -0.00488
  29 8   H  1S         -0.21376   0.30008   0.41871  -0.19483  -0.31252
  30 9   H  1S         -0.23549   0.21600  -0.26604   0.02573  -0.03661
  31 10  H  1S          0.04919   0.28763   0.27311   0.29102   0.41912
  32 11  H  1S          0.01070  -0.24052   0.14967   0.14476  -0.15972
  33 12  H  1S         -0.40245   0.14565  -0.19776  -0.01514   0.16235
  34 13  H  1S          0.42986   0.36836  -0.17279  -0.06692  -0.17202
  35 14  C  1S         -0.02437  -0.11816   0.10663  -0.02952   0.04714
  36        1PX        -0.06868   0.14281  -0.08917   0.06696  -0.08998
  37        1PY         0.03873   0.01978  -0.00991   0.08567  -0.02526
  38        1PZ        -0.00484   0.01165  -0.00748   0.00891  -0.01253
  39 15  H  1S          0.04508   0.04112  -0.04575   0.02974  -0.01075
  40 16  H  1S          0.04701   0.03247  -0.04571   0.02601  -0.00962
  41 17  H  1S          0.01953   0.01231  -0.02183  -0.04377   0.00493
                          36        37        38        39        40
                           V         V         V         V         V
     Eigenvalues --     0.39322   0.40890   0.41870   0.42088   0.43116
   1 1   C  1S         -0.12165   0.26033   0.04110   0.00285   0.14267
   2        1PX         0.26324   0.08397   0.26411  -0.05879  -0.39511
   3        1PY         0.20704   0.31804   0.05112   0.26324   0.15208
   4        1PZ        -0.03161   0.04889  -0.02436   0.03152   0.07546
   5 2   C  1S          0.36296   0.04267   0.14972  -0.00142  -0.30293
   6        1PX         0.04468  -0.13387   0.08174   0.05053  -0.14343
   7        1PY         0.07313  -0.09656  -0.10508  -0.17370  -0.38841
   8        1PZ        -0.00008   0.00072  -0.01256  -0.00724   0.00887
   9 3   C  1S         -0.06017  -0.12252   0.20872   0.22071   0.10097
  10        1PX        -0.15989  -0.03845   0.01729  -0.06853   0.46641
  11        1PY         0.31804  -0.06095   0.37879   0.08071   0.13635
  12        1PZ         0.01705   0.02316  -0.04055  -0.01708  -0.08150
  13 4   C  1S         -0.26338  -0.04794   0.09147  -0.19873  -0.05235
  14        1PX         0.23211   0.22099  -0.19345   0.22405   0.14070
  15        1PY        -0.18680   0.48064   0.36409  -0.06556  -0.02986
  16        1PZ         0.02529   0.06437   0.03012   0.00422  -0.00328
  17 5   C  1S         -0.30856  -0.00102  -0.17708   0.15593  -0.15457
  18        1PX        -0.18957   0.13664  -0.07459   0.32176  -0.26223
  19        1PY        -0.04378  -0.20283   0.41284   0.40745   0.06165
  20        1PZ        -0.01202   0.02917  -0.05525  -0.06111   0.00093
  21 6   C  1S          0.22188  -0.01322  -0.23993   0.04434   0.04455
  22        1PX         0.08723  -0.46675  -0.03478   0.02686   0.04556
  23        1PY        -0.29608   0.06494   0.27814  -0.33609  -0.05145
  24        1PZ        -0.05001  -0.04180   0.01850  -0.01792  -0.00357
  25 7   C  1S          0.16704  -0.13243  -0.06825  -0.21822   0.10265
  26        1PX        -0.24727  -0.31818   0.15770   0.33158  -0.08585
  27        1PY        -0.18176   0.13098  -0.24345   0.30679  -0.17266
  28        1PZ         0.04899  -0.03465   0.03505  -0.03246   0.02594
  29 8   H  1S          0.06675  -0.02748  -0.11378   0.15428   0.15602
  30 9   H  1S         -0.14424  -0.09563  -0.12272  -0.09063  -0.08257
  31 10  H  1S          0.03770   0.03126   0.00189  -0.14636   0.25193
  32 11  H  1S          0.06278   0.12217  -0.04447   0.00163  -0.07001
  33 12  H  1S          0.00791   0.13441   0.00089   0.12655  -0.01217
  34 13  H  1S         -0.00526  -0.04969   0.19766  -0.02560   0.03567
  35 14  C  1S         -0.04673  -0.06024   0.05266  -0.04229  -0.03389
  36        1PX         0.00187   0.05878  -0.04955   0.01541   0.03230
  37        1PY         0.05769  -0.08592  -0.05998   0.01144  -0.00783
  38        1PZ         0.00001   0.00076  -0.01462   0.00508   0.00599
  39 15  H  1S          0.03820  -0.00428  -0.02654   0.01723   0.00629
  40 16  H  1S          0.03326  -0.00422  -0.02988   0.01773   0.00848
  41 17  H  1S         -0.00883   0.05388   0.01403   0.00685   0.01053
                          41
                           V
     Eigenvalues --     0.43312
   1 1   C  1S         -0.21357
   2        1PX         0.28845
   3        1PY         0.24445
   4        1PZ        -0.02031
   5 2   C  1S         -0.04317
   6        1PX         0.63585
   7        1PY        -0.15723
   8        1PZ        -0.11907
   9 3   C  1S          0.20660
  10        1PX         0.27104
  11        1PY        -0.40139
  12        1PZ        -0.03161
  13 4   C  1S         -0.06508
  14        1PX        -0.01724
  15        1PY         0.08685
  16        1PZ         0.01884
  17 5   C  1S          0.06764
  18        1PX        -0.13628
  19        1PY        -0.13634
  20        1PZ         0.03415
  21 6   C  1S         -0.01801
  22        1PX         0.00277
  23        1PY         0.00543
  24        1PZ        -0.00436
  25 7   C  1S          0.06652
  26        1PX        -0.04515
  27        1PY        -0.03237
  28        1PZ        -0.00040
  29 8   H  1S          0.11337
  30 9   H  1S          0.00688
  31 10  H  1S         -0.07315
  32 11  H  1S         -0.06808
  33 12  H  1S          0.00667
  34 13  H  1S         -0.02113
  35 14  C  1S          0.01303
  36        1PX        -0.02892
  37        1PY        -0.00320
  38        1PZ        -0.00640
  39 15  H  1S         -0.00128
  40 16  H  1S         -0.00487
  41 17  H  1S          0.00144
     Density Matrix:
                           1         2         3         4         5
   1 1   C  1S          1.19982
   2        1PX         0.02208   0.93203
   3        1PY        -0.03670  -0.03179   0.91510
   4        1PZ        -0.03028   0.06392  -0.06519   1.40505
   5 2   C  1S          0.30907  -0.47920  -0.07887   0.07724   1.19532
   6        1PX         0.46456  -0.54554  -0.13064   0.19704  -0.01007
   7        1PY         0.14438  -0.20042   0.10642  -0.00790  -0.02847
   8        1PZ        -0.08741   0.19276  -0.05335   0.69423   0.00141
   9 3   C  1S         -0.01429   0.03079   0.00372  -0.01884   0.30059
  10        1PX        -0.02838   0.03161   0.02640  -0.06362   0.40639
  11        1PY         0.01503  -0.03827   0.00004  -0.01607  -0.26763
  12        1PZ         0.01596  -0.05708   0.04644  -0.36298  -0.07254
  13 4   C  1S          0.27592   0.18619   0.44023   0.05156  -0.01871
  14        1PX        -0.20263  -0.02774  -0.30470  -0.03141   0.01366
  15        1PY        -0.40300  -0.25951  -0.51132  -0.07560   0.02845
  16        1PZ        -0.06381  -0.02602  -0.10996   0.25523   0.00130
  17 5   C  1S         -0.01040   0.01491  -0.00009   0.01417  -0.01688
  18        1PX        -0.00021   0.00370   0.00309   0.00039  -0.00259
  19        1PY         0.01425  -0.01694   0.00646  -0.02131   0.03155
  20        1PZ        -0.00267  -0.01220   0.00584  -0.07761  -0.00400
  21 6   C  1S         -0.01914  -0.00947  -0.03671   0.00329  -0.00513
  22        1PX        -0.01068  -0.00226  -0.03645   0.02117  -0.00167
  23        1PY         0.02796   0.02707   0.03214   0.02480   0.00913
  24        1PZ         0.00992  -0.01640   0.02779  -0.17596  -0.01785
  25 7   C  1S         -0.00881  -0.00661  -0.01459   0.00216  -0.00887
  26        1PX        -0.01522  -0.00348  -0.01668  -0.00850   0.00635
  27        1PY         0.00163   0.01089   0.00120   0.03429   0.01064
  28        1PZ        -0.00678   0.02704  -0.02481   0.17380   0.01781
  29 8   H  1S          0.56292   0.50985  -0.60504  -0.12564  -0.05307
  30 9   H  1S         -0.05296   0.06638   0.00248  -0.03101   0.52674
  31 10  H  1S          0.05268  -0.06977  -0.00888   0.01490  -0.05325
  32 11  H  1S          0.00034  -0.00401   0.00264  -0.02361   0.04854
  33 12  H  1S          0.05564   0.02671   0.08403  -0.00893  -0.00170
  34 13  H  1S          0.00061   0.00017   0.00304  -0.00860  -0.00109
  35 14  C  1S         -0.03370  -0.02514  -0.02524  -0.01277   0.02317
  36        1PX         0.03470   0.02017   0.05722   0.02217  -0.03625
  37        1PY         0.00074  -0.01948  -0.01170  -0.00675   0.00037
  38        1PZ         0.00678   0.00113   0.00527  -0.00704  -0.00724
  39 15  H  1S         -0.00375  -0.00213  -0.00279  -0.01138   0.00176
  40 16  H  1S         -0.00832  -0.00232  -0.00808   0.01222   0.00197
  41 17  H  1S          0.04762   0.03211   0.05119   0.00881  -0.01366
                           6         7         8         9        10
   6        1PX         0.91834
   7        1PY        -0.00009   0.93488
   8        1PZ        -0.00810   0.00318   0.87098
   9 3   C  1S         -0.36359   0.30694   0.09169   1.19681
  10        1PX        -0.33533   0.38246   0.17464  -0.03684   0.94570
  11        1PY         0.32121  -0.12977  -0.04149  -0.02054   0.01604
  12        1PZ         0.15655  -0.07320   0.58451   0.03876   0.08289
  13 4   C  1S         -0.03230  -0.01444   0.00456  -0.00999  -0.01393
  14        1PX         0.01179  -0.01012  -0.01246   0.00644   0.00828
  15        1PY         0.04246   0.01263  -0.02775   0.01381   0.01406
  16        1PZ         0.03096   0.00034   0.07571   0.00408   0.00028
  17 5   C  1S          0.02303  -0.02170  -0.00407   0.28010   0.01363
  18        1PX         0.00206   0.01571   0.00106   0.03114   0.11188
  19        1PY        -0.03614   0.02014   0.03736  -0.46093  -0.01239
  20        1PZ         0.03380  -0.01688   0.08915   0.07760   0.03874
  21 6   C  1S         -0.00652  -0.00118   0.00984  -0.01065  -0.00052
  22        1PX         0.01097  -0.00368   0.02096   0.01644   0.00182
  23        1PY         0.01121   0.00404   0.01536  -0.00389  -0.00679
  24        1PZ        -0.04841   0.00338  -0.16593   0.00657   0.02180
  25 7   C  1S          0.00802  -0.00631  -0.00703  -0.01498  -0.00707
  26        1PX         0.00252   0.00385   0.00666   0.01982   0.00678
  27        1PY        -0.01488   0.01016  -0.02500   0.02053  -0.01622
  28        1PZ        -0.03989   0.01766  -0.15098  -0.01519  -0.03755
  29 8   H  1S         -0.06771  -0.02855   0.01748   0.05343   0.06477
  30 9   H  1S         -0.16737  -0.80713  -0.01108  -0.04856  -0.05840
  31 10  H  1S          0.04913  -0.05319  -0.01914   0.56650  -0.70909
  32 11  H  1S         -0.04520   0.04283   0.02803  -0.04508  -0.00019
  33 12  H  1S         -0.00078  -0.00032   0.00404   0.00123   0.00167
  34 13  H  1S          0.00103   0.00019  -0.00693   0.05620   0.00894
  35 14  C  1S          0.02726   0.01280  -0.01691  -0.00094   0.00107
  36        1PX        -0.04200  -0.01685   0.02903  -0.00072  -0.00462
  37        1PY         0.00476   0.00371   0.00200   0.00067   0.00029
  38        1PZ        -0.01127  -0.00166  -0.01566   0.00064   0.00154
  39 15  H  1S         -0.00182   0.00181  -0.01550  -0.00015  -0.00033
  40 16  H  1S          0.00692   0.00096   0.01189   0.00024  -0.00077
  41 17  H  1S         -0.01729  -0.00671   0.01173  -0.00096  -0.00130
                          11        12        13        14        15
  11        1PY         0.90523
  12        1PZ         0.03440   1.46126
  13 4   C  1S          0.00712  -0.01510   1.19756
  14        1PX        -0.00539  -0.00033   0.00020   0.89054
  15        1PY        -0.00103   0.00461  -0.01584   0.01217   0.93852
  16        1PZ         0.00438  -0.00037  -0.00810  -0.00976   0.00318
  17 5   C  1S          0.47951  -0.05528  -0.00507   0.00534  -0.00640
  18        1PX         0.04109   0.00469  -0.00586   0.00799  -0.00306
  19        1PY        -0.63157   0.11241  -0.00404   0.00753   0.01065
  20        1PZ         0.13189   0.38116   0.01700   0.01178   0.03474
  21 6   C  1S         -0.01718  -0.00483   0.32937  -0.23376   0.43086
  22        1PX         0.01896  -0.01549   0.20753   0.01578   0.27943
  23        1PY        -0.00029  -0.01651  -0.46168   0.32619  -0.43337
  24        1PZ         0.00646   0.11580  -0.03935  -0.06589  -0.11676
  25 7   C  1S         -0.03385  -0.00029  -0.01876   0.01298  -0.02272
  26        1PX         0.04647   0.00878  -0.03766   0.01127  -0.04702
  27        1PY         0.02434  -0.05184   0.01595   0.01018   0.01195
  28        1PZ        -0.02618  -0.26924   0.00685   0.00727  -0.00123
  29 8   H  1S         -0.03822  -0.01030  -0.05012   0.04615   0.06659
  30 9   H  1S          0.03442   0.03065   0.05973  -0.03804  -0.07326
  31 10  H  1S         -0.35427   0.10126  -0.00041  -0.00156   0.00047
  32 11  H  1S         -0.07100   0.02676  -0.00459  -0.00162  -0.00370
  33 12  H  1S          0.00371   0.01627  -0.04788   0.04638  -0.06890
  34 13  H  1S          0.08576   0.00369   0.04643  -0.02847   0.04362
  35 14  C  1S          0.00047   0.01245   0.22567   0.41456  -0.01030
  36        1PX         0.00083  -0.02179  -0.46532  -0.69998   0.02585
  37        1PY        -0.00089   0.00067   0.02446   0.04862   0.09093
  38        1PZ         0.00024   0.00816  -0.05338  -0.09451  -0.00296
  39 15  H  1S          0.00018  -0.00110  -0.01760  -0.03828  -0.00259
  40 16  H  1S          0.00181   0.00102  -0.01858  -0.03626   0.00150
  41 17  H  1S         -0.00142  -0.00679  -0.02035  -0.05076  -0.00422
                          16        17        18        19        20
  16        1PZ         0.96770
  17 5   C  1S         -0.01824   1.20186
  18        1PX        -0.01386  -0.03533   0.92775
  19        1PY        -0.04149  -0.00140  -0.01097   0.93678
  20        1PZ        -0.18542   0.00354  -0.00226  -0.00765   0.90883
  21 6   C  1S          0.01853  -0.01582  -0.02673  -0.01429  -0.00156
  22        1PX        -0.07814   0.03396   0.03199   0.03514  -0.01222
  23        1PY        -0.13385  -0.00151  -0.01771  -0.00250  -0.00365
  24        1PZ         0.90233  -0.00284   0.00775   0.01019   0.02244
  25 7   C  1S          0.00230   0.31853   0.40143   0.29620  -0.04378
  26        1PX        -0.00016  -0.35714  -0.28089  -0.33627   0.02325
  27        1PY        -0.00097  -0.34006  -0.40246  -0.14177   0.18116
  28        1PZ        -0.03947   0.05729   0.04322   0.15631   0.85244
  29 8   H  1S          0.00963  -0.00030   0.00146  -0.00039  -0.00519
  30 9   H  1S         -0.01232   0.05552   0.00751  -0.07625   0.01895
  31 10  H  1S          0.00155  -0.05326  -0.01429   0.07401  -0.01281
  32 11  H  1S          0.00905   0.53315  -0.75177   0.32232  -0.06030
  33 12  H  1S          0.00233   0.04314   0.04578   0.02625  -0.03653
  34 13  H  1S          0.03394  -0.05199  -0.06400  -0.04290   0.00646
  35 14  C  1S          0.04631  -0.00260  -0.00218  -0.00143  -0.00064
  36        1PX        -0.09335   0.00231   0.00113   0.00139   0.00325
  37        1PY         0.00030  -0.00200  -0.00110  -0.00152  -0.00020
  38        1PZ         0.14323   0.00011   0.00007   0.00158   0.00641
  39 15  H  1S          0.01016   0.00254   0.00203   0.00754   0.03026
  40 16  H  1S         -0.01736  -0.00223  -0.00187  -0.00472  -0.02558
  41 17  H  1S         -0.00698   0.00046  -0.00033  -0.00217  -0.00253
                          21        22        23        24        25
  21 6   C  1S          1.20511
  22        1PX         0.01004   0.93584
  23        1PY         0.04394   0.01667   0.92963
  24        1PZ        -0.00005  -0.02074  -0.02480   1.10978
  25 7   C  1S          0.26438  -0.45311   0.06657  -0.04689   1.20380
  26        1PX         0.45305  -0.62953   0.11286  -0.07475  -0.00540
  27        1PY        -0.11446   0.17775   0.07187   0.01521   0.04106
  28        1PZ         0.04256  -0.06457   0.01517   0.15946  -0.00481
  29 8   H  1S          0.04508   0.01963  -0.05369   0.01214   0.00226
  30 9   H  1S         -0.00395  -0.00398  -0.00017   0.01651  -0.00127
  31 10  H  1S          0.00147  -0.00136  -0.00005  -0.00404   0.04916
  32 11  H  1S          0.06036  -0.09243   0.00864  -0.00051  -0.05454
  33 12  H  1S          0.54709   0.45456   0.65558   0.14380  -0.04741
  34 13  H  1S         -0.05171   0.07560  -0.00447   0.00735   0.55540
  35 14  C  1S         -0.03527  -0.02619   0.02183   0.00565   0.02901
  36        1PX         0.04484   0.02228  -0.06697  -0.01604  -0.04880
  37        1PY        -0.01531   0.00682  -0.01052   0.00251   0.00903
  38        1PZ         0.00453   0.00547  -0.00757  -0.01113  -0.00505
  39 15  H  1S          0.02781   0.02652  -0.01251  -0.10736  -0.00869
  40 16  H  1S          0.02997   0.00346  -0.04222   0.09823  -0.00877
  41 17  H  1S         -0.01671  -0.00442   0.01634   0.00294   0.00259
                          26        27        28        29        30
  26        1PX         0.91453
  27        1PY        -0.00328   0.95132
  28        1PZ        -0.01366   0.05518   1.22783
  29 8   H  1S          0.00353  -0.00059   0.00273   0.92956
  30 9   H  1S          0.00235  -0.00388  -0.02046  -0.03674   0.96204
  31 10  H  1S         -0.04369  -0.04517   0.00074  -0.03040  -0.03473
  32 11  H  1S          0.04774   0.05447  -0.02525   0.00809  -0.03047
  33 12  H  1S         -0.07177   0.01990  -0.01273  -0.03242   0.01307
  34 13  H  1S         -0.16655   0.77402  -0.14947   0.00382   0.01143
  35 14  C  1S          0.04502  -0.01613  -0.00382  -0.01459  -0.01400
  36        1PX        -0.07560   0.02477   0.00739   0.02214   0.02539
  37        1PY         0.01002  -0.00159   0.00183  -0.00868  -0.00345
  38        1PZ        -0.00729   0.00153  -0.01318   0.00295   0.00394
  39 15  H  1S         -0.01335   0.00409   0.00437   0.01016  -0.00084
  40 16  H  1S         -0.01393   0.00356  -0.00576   0.01455  -0.00151
  41 17  H  1S          0.00434  -0.00137   0.00332   0.00551   0.01373
                          31        32        33        34        35
  31 10  H  1S          0.92908
  32 11  H  1S         -0.02866   0.95526
  33 12  H  1S          0.00477  -0.03040   0.93676
  34 13  H  1S         -0.03152  -0.03777  -0.02182   0.93436
  35 14  C  1S          0.00360   0.00811  -0.02231  -0.01423   1.21111
  36        1PX        -0.00513  -0.01355   0.03345   0.02737   0.01552
  37        1PY         0.00029   0.00245  -0.00367  -0.00111   0.00364
  38        1PZ        -0.00123  -0.00078   0.00422   0.00294   0.00324
  39 15  H  1S          0.00027  -0.00359   0.00365   0.00163   0.48881
  40 16  H  1S          0.00093  -0.00115   0.00503   0.01097   0.48713
  41 17  H  1S         -0.00234   0.00056   0.02964  -0.00233   0.49261
                          36        37        38        39        40
  36        1PX         0.98550
  37        1PY        -0.01078   0.97987
  38        1PZ        -0.00098  -0.00275   0.99313
  39 15  H  1S          0.17929  -0.46784   0.69520   0.94573
  40 16  H  1S          0.33760  -0.38370  -0.68987  -0.05365   0.94977
  41 17  H  1S          0.32880   0.78792   0.08489  -0.06370  -0.06351
                          41
  41 17  H  1S          0.95994
    Full Mulliken population analysis:
                           1         2         3         4         5
   1 1   C  1S          1.19982
   2        1PX         0.00000   0.93203
   3        1PY         0.00000   0.00000   0.91510
   4        1PZ         0.00000   0.00000   0.00000   1.40505
   5 2   C  1S          0.00000   0.00000   0.00000   0.00000   1.19532
   6        1PX         0.00000   0.00000   0.00000   0.00000   0.00000
   7        1PY         0.00000   0.00000   0.00000   0.00000   0.00000
   8        1PZ         0.00000   0.00000   0.00000   0.00000   0.00000
   9 3   C  1S          0.00000   0.00000   0.00000   0.00000   0.00000
  10        1PX         0.00000   0.00000   0.00000   0.00000   0.00000
  11        1PY         0.00000   0.00000   0.00000   0.00000   0.00000
  12        1PZ         0.00000   0.00000   0.00000   0.00000   0.00000
  13 4   C  1S          0.00000   0.00000   0.00000   0.00000   0.00000
  14        1PX         0.00000   0.00000   0.00000   0.00000   0.00000
  15        1PY         0.00000   0.00000   0.00000   0.00000   0.00000
  16        1PZ         0.00000   0.00000   0.00000   0.00000   0.00000
  17 5   C  1S          0.00000   0.00000   0.00000   0.00000   0.00000
  18        1PX         0.00000   0.00000   0.00000   0.00000   0.00000
  19        1PY         0.00000   0.00000   0.00000   0.00000   0.00000
  20        1PZ         0.00000   0.00000   0.00000   0.00000   0.00000
  21 6   C  1S          0.00000   0.00000   0.00000   0.00000   0.00000
  22        1PX         0.00000   0.00000   0.00000   0.00000   0.00000
  23        1PY         0.00000   0.00000   0.00000   0.00000   0.00000
  24        1PZ         0.00000   0.00000   0.00000   0.00000   0.00000
  25 7   C  1S          0.00000   0.00000   0.00000   0.00000   0.00000
  26        1PX         0.00000   0.00000   0.00000   0.00000   0.00000
  27        1PY         0.00000   0.00000   0.00000   0.00000   0.00000
  28        1PZ         0.00000   0.00000   0.00000   0.00000   0.00000
  29 8   H  1S          0.00000   0.00000   0.00000   0.00000   0.00000
  30 9   H  1S          0.00000   0.00000   0.00000   0.00000   0.00000
  31 10  H  1S          0.00000   0.00000   0.00000   0.00000   0.00000
  32 11  H  1S          0.00000   0.00000   0.00000   0.00000   0.00000
  33 12  H  1S          0.00000   0.00000   0.00000   0.00000   0.00000
  34 13  H  1S          0.00000   0.00000   0.00000   0.00000   0.00000
  35 14  C  1S          0.00000   0.00000   0.00000   0.00000   0.00000
  36        1PX         0.00000   0.00000   0.00000   0.00000   0.00000
  37        1PY         0.00000   0.00000   0.00000   0.00000   0.00000
  38        1PZ         0.00000   0.00000   0.00000   0.00000   0.00000
  39 15  H  1S          0.00000   0.00000   0.00000   0.00000   0.00000
  40 16  H  1S          0.00000   0.00000   0.00000   0.00000   0.00000
  41 17  H  1S          0.00000   0.00000   0.00000   0.00000   0.00000
                           6         7         8         9        10
   6        1PX         0.91834
   7        1PY         0.00000   0.93488
   8        1PZ         0.00000   0.00000   0.87098
   9 3   C  1S          0.00000   0.00000   0.00000   1.19681
  10        1PX         0.00000   0.00000   0.00000   0.00000   0.94570
  11        1PY         0.00000   0.00000   0.00000   0.00000   0.00000
  12        1PZ         0.00000   0.00000   0.00000   0.00000   0.00000
  13 4   C  1S          0.00000   0.00000   0.00000   0.00000   0.00000
  14        1PX         0.00000   0.00000   0.00000   0.00000   0.00000
  15        1PY         0.00000   0.00000   0.00000   0.00000   0.00000
  16        1PZ         0.00000   0.00000   0.00000   0.00000   0.00000
  17 5   C  1S          0.00000   0.00000   0.00000   0.00000   0.00000
  18        1PX         0.00000   0.00000   0.00000   0.00000   0.00000
  19        1PY         0.00000   0.00000   0.00000   0.00000   0.00000
  20        1PZ         0.00000   0.00000   0.00000   0.00000   0.00000
  21 6   C  1S          0.00000   0.00000   0.00000   0.00000   0.00000
  22        1PX         0.00000   0.00000   0.00000   0.00000   0.00000
  23        1PY         0.00000   0.00000   0.00000   0.00000   0.00000
  24        1PZ         0.00000   0.00000   0.00000   0.00000   0.00000
  25 7   C  1S          0.00000   0.00000   0.00000   0.00000   0.00000
  26        1PX         0.00000   0.00000   0.00000   0.00000   0.00000
  27        1PY         0.00000   0.00000   0.00000   0.00000   0.00000
  28        1PZ         0.00000   0.00000   0.00000   0.00000   0.00000
  29 8   H  1S          0.00000   0.00000   0.00000   0.00000   0.00000
  30 9   H  1S          0.00000   0.00000   0.00000   0.00000   0.00000
  31 10  H  1S          0.00000   0.00000   0.00000   0.00000   0.00000
  32 11  H  1S          0.00000   0.00000   0.00000   0.00000   0.00000
  33 12  H  1S          0.00000   0.00000   0.00000   0.00000   0.00000
  34 13  H  1S          0.00000   0.00000   0.00000   0.00000   0.00000
  35 14  C  1S          0.00000   0.00000   0.00000   0.00000   0.00000
  36        1PX         0.00000   0.00000   0.00000   0.00000   0.00000
  37        1PY         0.00000   0.00000   0.00000   0.00000   0.00000
  38        1PZ         0.00000   0.00000   0.00000   0.00000   0.00000
  39 15  H  1S          0.00000   0.00000   0.00000   0.00000   0.00000
  40 16  H  1S          0.00000   0.00000   0.00000   0.00000   0.00000
  41 17  H  1S          0.00000   0.00000   0.00000   0.00000   0.00000
                          11        12        13        14        15
  11        1PY         0.90523
  12        1PZ         0.00000   1.46126
  13 4   C  1S          0.00000   0.00000   1.19756
  14        1PX         0.00000   0.00000   0.00000   0.89054
  15        1PY         0.00000   0.00000   0.00000   0.00000   0.93852
  16        1PZ         0.00000   0.00000   0.00000   0.00000   0.00000
  17 5   C  1S          0.00000   0.00000   0.00000   0.00000   0.00000
  18        1PX         0.00000   0.00000   0.00000   0.00000   0.00000
  19        1PY         0.00000   0.00000   0.00000   0.00000   0.00000
  20        1PZ         0.00000   0.00000   0.00000   0.00000   0.00000
  21 6   C  1S          0.00000   0.00000   0.00000   0.00000   0.00000
  22        1PX         0.00000   0.00000   0.00000   0.00000   0.00000
  23        1PY         0.00000   0.00000   0.00000   0.00000   0.00000
  24        1PZ         0.00000   0.00000   0.00000   0.00000   0.00000
  25 7   C  1S          0.00000   0.00000   0.00000   0.00000   0.00000
  26        1PX         0.00000   0.00000   0.00000   0.00000   0.00000
  27        1PY         0.00000   0.00000   0.00000   0.00000   0.00000
  28        1PZ         0.00000   0.00000   0.00000   0.00000   0.00000
  29 8   H  1S          0.00000   0.00000   0.00000   0.00000   0.00000
  30 9   H  1S          0.00000   0.00000   0.00000   0.00000   0.00000
  31 10  H  1S          0.00000   0.00000   0.00000   0.00000   0.00000
  32 11  H  1S          0.00000   0.00000   0.00000   0.00000   0.00000
  33 12  H  1S          0.00000   0.00000   0.00000   0.00000   0.00000
  34 13  H  1S          0.00000   0.00000   0.00000   0.00000   0.00000
  35 14  C  1S          0.00000   0.00000   0.00000   0.00000   0.00000
  36        1PX         0.00000   0.00000   0.00000   0.00000   0.00000
  37        1PY         0.00000   0.00000   0.00000   0.00000   0.00000
  38        1PZ         0.00000   0.00000   0.00000   0.00000   0.00000
  39 15  H  1S          0.00000   0.00000   0.00000   0.00000   0.00000
  40 16  H  1S          0.00000   0.00000   0.00000   0.00000   0.00000
  41 17  H  1S          0.00000   0.00000   0.00000   0.00000   0.00000
                          16        17        18        19        20
  16        1PZ         0.96770
  17 5   C  1S          0.00000   1.20186
  18        1PX         0.00000   0.00000   0.92775
  19        1PY         0.00000   0.00000   0.00000   0.93678
  20        1PZ         0.00000   0.00000   0.00000   0.00000   0.90883
  21 6   C  1S          0.00000   0.00000   0.00000   0.00000   0.00000
  22        1PX         0.00000   0.00000   0.00000   0.00000   0.00000
  23        1PY         0.00000   0.00000   0.00000   0.00000   0.00000
  24        1PZ         0.00000   0.00000   0.00000   0.00000   0.00000
  25 7   C  1S          0.00000   0.00000   0.00000   0.00000   0.00000
  26        1PX         0.00000   0.00000   0.00000   0.00000   0.00000
  27        1PY         0.00000   0.00000   0.00000   0.00000   0.00000
  28        1PZ         0.00000   0.00000   0.00000   0.00000   0.00000
  29 8   H  1S          0.00000   0.00000   0.00000   0.00000   0.00000
  30 9   H  1S          0.00000   0.00000   0.00000   0.00000   0.00000
  31 10  H  1S          0.00000   0.00000   0.00000   0.00000   0.00000
  32 11  H  1S          0.00000   0.00000   0.00000   0.00000   0.00000
  33 12  H  1S          0.00000   0.00000   0.00000   0.00000   0.00000
  34 13  H  1S          0.00000   0.00000   0.00000   0.00000   0.00000
  35 14  C  1S          0.00000   0.00000   0.00000   0.00000   0.00000
  36        1PX         0.00000   0.00000   0.00000   0.00000   0.00000
  37        1PY         0.00000   0.00000   0.00000   0.00000   0.00000
  38        1PZ         0.00000   0.00000   0.00000   0.00000   0.00000
  39 15  H  1S          0.00000   0.00000   0.00000   0.00000   0.00000
  40 16  H  1S          0.00000   0.00000   0.00000   0.00000   0.00000
  41 17  H  1S          0.00000   0.00000   0.00000   0.00000   0.00000
                          21        22        23        24        25
  21 6   C  1S          1.20511
  22        1PX         0.00000   0.93584
  23        1PY         0.00000   0.00000   0.92963
  24        1PZ         0.00000   0.00000   0.00000   1.10978
  25 7   C  1S          0.00000   0.00000   0.00000   0.00000   1.20380
  26        1PX         0.00000   0.00000   0.00000   0.00000   0.00000
  27        1PY         0.00000   0.00000   0.00000   0.00000   0.00000
  28        1PZ         0.00000   0.00000   0.00000   0.00000   0.00000
  29 8   H  1S          0.00000   0.00000   0.00000   0.00000   0.00000
  30 9   H  1S          0.00000   0.00000   0.00000   0.00000   0.00000
  31 10  H  1S          0.00000   0.00000   0.00000   0.00000   0.00000
  32 11  H  1S          0.00000   0.00000   0.00000   0.00000   0.00000
  33 12  H  1S          0.00000   0.00000   0.00000   0.00000   0.00000
  34 13  H  1S          0.00000   0.00000   0.00000   0.00000   0.00000
  35 14  C  1S          0.00000   0.00000   0.00000   0.00000   0.00000
  36        1PX         0.00000   0.00000   0.00000   0.00000   0.00000
  37        1PY         0.00000   0.00000   0.00000   0.00000   0.00000
  38        1PZ         0.00000   0.00000   0.00000   0.00000   0.00000
  39 15  H  1S          0.00000   0.00000   0.00000   0.00000   0.00000
  40 16  H  1S          0.00000   0.00000   0.00000   0.00000   0.00000
  41 17  H  1S          0.00000   0.00000   0.00000   0.00000   0.00000
                          26        27        28        29        30
  26        1PX         0.91453
  27        1PY         0.00000   0.95132
  28        1PZ         0.00000   0.00000   1.22783
  29 8   H  1S          0.00000   0.00000   0.00000   0.92956
  30 9   H  1S          0.00000   0.00000   0.00000   0.00000   0.96204
  31 10  H  1S          0.00000   0.00000   0.00000   0.00000   0.00000
  32 11  H  1S          0.00000   0.00000   0.00000   0.00000   0.00000
  33 12  H  1S          0.00000   0.00000   0.00000   0.00000   0.00000
  34 13  H  1S          0.00000   0.00000   0.00000   0.00000   0.00000
  35 14  C  1S          0.00000   0.00000   0.00000   0.00000   0.00000
  36        1PX         0.00000   0.00000   0.00000   0.00000   0.00000
  37        1PY         0.00000   0.00000   0.00000   0.00000   0.00000
  38        1PZ         0.00000   0.00000   0.00000   0.00000   0.00000
  39 15  H  1S          0.00000   0.00000   0.00000   0.00000   0.00000
  40 16  H  1S          0.00000   0.00000   0.00000   0.00000   0.00000
  41 17  H  1S          0.00000   0.00000   0.00000   0.00000   0.00000
                          31        32        33        34        35
  31 10  H  1S          0.92908
  32 11  H  1S          0.00000   0.95526
  33 12  H  1S          0.00000   0.00000   0.93676
  34 13  H  1S          0.00000   0.00000   0.00000   0.93436
  35 14  C  1S          0.00000   0.00000   0.00000   0.00000   1.21111
  36        1PX         0.00000   0.00000   0.00000   0.00000   0.00000
  37        1PY         0.00000   0.00000   0.00000   0.00000   0.00000
  38        1PZ         0.00000   0.00000   0.00000   0.00000   0.00000
  39 15  H  1S          0.00000   0.00000   0.00000   0.00000   0.00000
  40 16  H  1S          0.00000   0.00000   0.00000   0.00000   0.00000
  41 17  H  1S          0.00000   0.00000   0.00000   0.00000   0.00000
                          36        37        38        39        40
  36        1PX         0.98550
  37        1PY         0.00000   0.97987
  38        1PZ         0.00000   0.00000   0.99313
  39 15  H  1S          0.00000   0.00000   0.00000   0.94573
  40 16  H  1S          0.00000   0.00000   0.00000   0.00000   0.94977
  41 17  H  1S          0.00000   0.00000   0.00000   0.00000   0.00000
                          41
  41 17  H  1S          0.95994
     Gross orbital populations:
                           1
   1 1   C  1S          1.19982
   2        1PX         0.93203
   3        1PY         0.91510
   4        1PZ         1.40505
   5 2   C  1S          1.19532
   6        1PX         0.91834
   7        1PY         0.93488
   8        1PZ         0.87098
   9 3   C  1S          1.19681
  10        1PX         0.94570
  11        1PY         0.90523
  12        1PZ         1.46126
  13 4   C  1S          1.19756
  14        1PX         0.89054
  15        1PY         0.93852
  16        1PZ         0.96770
  17 5   C  1S          1.20186
  18        1PX         0.92775
  19        1PY         0.93678
  20        1PZ         0.90883
  21 6   C  1S          1.20511
  22        1PX         0.93584
  23        1PY         0.92963
  24        1PZ         1.10978
  25 7   C  1S          1.20380
  26        1PX         0.91453
  27        1PY         0.95132
  28        1PZ         1.22783
  29 8   H  1S          0.92956
  30 9   H  1S          0.96204
  31 10  H  1S          0.92908
  32 11  H  1S          0.95526
  33 12  H  1S          0.93676
  34 13  H  1S          0.93436
  35 14  C  1S          1.21111
  36        1PX         0.98550
  37        1PY         0.97987
  38        1PZ         0.99313
  39 15  H  1S          0.94573
  40 16  H  1S          0.94977
  41 17  H  1S          0.95994
          Condensed to atoms (all electrons):
               1          2          3          4          5          6
     1  C    4.452002   0.000000   0.000000   0.000000   0.000000   0.000000
     2  C    0.000000   3.919529   0.000000   0.000000   0.000000   0.000000
     3  C    0.000000   0.000000   4.508999   0.000000   0.000000   0.000000
     4  C    0.000000   0.000000   0.000000   3.994320   0.000000   0.000000
     5  C    0.000000   0.000000   0.000000   0.000000   3.975219   0.000000
     6  C    0.000000   0.000000   0.000000   0.000000   0.000000   4.180362
     7  C    0.000000   0.000000   0.000000   0.000000   0.000000   0.000000
     8  H    0.000000   0.000000   0.000000   0.000000   0.000000   0.000000
     9  H    0.000000   0.000000   0.000000   0.000000   0.000000   0.000000
    10  H    0.000000   0.000000   0.000000   0.000000   0.000000   0.000000
    11  H    0.000000   0.000000   0.000000   0.000000   0.000000   0.000000
    12  H    0.000000   0.000000   0.000000   0.000000   0.000000   0.000000
    13  H    0.000000   0.000000   0.000000   0.000000   0.000000   0.000000
    14  C    0.000000   0.000000   0.000000   0.000000   0.000000   0.000000
    15  H    0.000000   0.000000   0.000000   0.000000   0.000000   0.000000
    16  H    0.000000   0.000000   0.000000   0.000000   0.000000   0.000000
    17  H    0.000000   0.000000   0.000000   0.000000   0.000000   0.000000
               7          8          9         10         11         12
     1  C    0.000000   0.000000   0.000000   0.000000   0.000000   0.000000
     2  C    0.000000   0.000000   0.000000   0.000000   0.000000   0.000000
     3  C    0.000000   0.000000   0.000000   0.000000   0.000000   0.000000
     4  C    0.000000   0.000000   0.000000   0.000000   0.000000   0.000000
     5  C    0.000000   0.000000   0.000000   0.000000   0.000000   0.000000
     6  C    0.000000   0.000000   0.000000   0.000000   0.000000   0.000000
     7  C    4.297470   0.000000   0.000000   0.000000   0.000000   0.000000
     8  H    0.000000   0.929557   0.000000   0.000000   0.000000   0.000000
     9  H    0.000000   0.000000   0.962044   0.000000   0.000000   0.000000
    10  H    0.000000   0.000000   0.000000   0.929082   0.000000   0.000000
    11  H    0.000000   0.000000   0.000000   0.000000   0.955256   0.000000
    12  H    0.000000   0.000000   0.000000   0.000000   0.000000   0.936759
    13  H    0.000000   0.000000   0.000000   0.000000   0.000000   0.000000
    14  C    0.000000   0.000000   0.000000   0.000000   0.000000   0.000000
    15  H    0.000000   0.000000   0.000000   0.000000   0.000000   0.000000
    16  H    0.000000   0.000000   0.000000   0.000000   0.000000   0.000000
    17  H    0.000000   0.000000   0.000000   0.000000   0.000000   0.000000
              13         14         15         16         17
     1  C    0.000000   0.000000   0.000000   0.000000   0.000000
     2  C    0.000000   0.000000   0.000000   0.000000   0.000000
     3  C    0.000000   0.000000   0.000000   0.000000   0.000000
     4  C    0.000000   0.000000   0.000000   0.000000   0.000000
     5  C    0.000000   0.000000   0.000000   0.000000   0.000000
     6  C    0.000000   0.000000   0.000000   0.000000   0.000000
     7  C    0.000000   0.000000   0.000000   0.000000   0.000000
     8  H    0.000000   0.000000   0.000000   0.000000   0.000000
     9  H    0.000000   0.000000   0.000000   0.000000   0.000000
    10  H    0.000000   0.000000   0.000000   0.000000   0.000000
    11  H    0.000000   0.000000   0.000000   0.000000   0.000000
    12  H    0.000000   0.000000   0.000000   0.000000   0.000000
    13  H    0.934356   0.000000   0.000000   0.000000   0.000000
    14  C    0.000000   4.169615   0.000000   0.000000   0.000000
    15  H    0.000000   0.000000   0.945728   0.000000   0.000000
    16  H    0.000000   0.000000   0.000000   0.949769   0.000000
    17  H    0.000000   0.000000   0.000000   0.000000   0.959935
 Mulliken charges:
               1
     1  C   -0.452002
     2  C    0.080471
     3  C   -0.508999
     4  C    0.005680
     5  C    0.024781
     6  C   -0.180362
     7  C   -0.297470
     8  H    0.070443
[...]
   yxz        0.898459D+02      0.776198D+00      0.288078D+00
   yyz       -0.224133D+03     -0.193633D+01     -0.718650D+00
   zxz        0.139363D+03      0.120398D+01      0.446847D+00
   zyz       -0.419830D+03     -0.362700D+01     -0.134613D+01
   zzz       -0.895077D+01     -0.773277D-01     -0.286994D-01

 ----------------------------------------------------------------------
 1\1\GINC-IISERK51\Freq\RAM1\ZDO\C8H9(1-)\GAUSSIAN\12-Jun-2025\0\\#N Ge
 om=AllCheck Guess=TCheck SCRF=Check GenChk RAM1/ZDO Freq\\Optimisation
 \\-1,1\C,0.5300832809,1.2490660926,-0.0093410725\C,-0.7775030478,1.583
 5314463,0.0088468641\C,-1.9233025841,0.6980742564,0.0185365352\C,1.166
 0477749,-0.0202320423,-0.0242526413\C,-1.9337975892,-0.6426656138,0.01
 19301333\C,0.5035944358,-1.2508925116,-0.0219682538\C,-0.8254603907,-1
 .5561662643,-0.0066361016\H,1.2438315238,2.1024891656,-0.0137143097\H,
 -1.0402761795,2.654505762,0.0179200393\H,-2.8935644421,1.2278387852,0.
 0333424138\H,-2.9219480949,-1.1447386052,0.0218347457\H,1.1801352071,-
 2.1355058987,-0.0349828008\H,-1.108341206,-2.6200752289,-0.0082713197\
 C,2.6426898043,-0.0087836706,-0.0422536897\H,3.0401323316,0.5403340916
 ,-0.9371006764\H,3.0626687608,0.5058861266,0.8628392019\H,3.0685534151
 ,-1.0431628909,-0.067198068\\Version=EM64L-G16RevB.01\State=1-A\HF=0.0
 489937\RMSD=7.034e-10\RMSF=1.085e-05\ZeroPoint=0.1437567\Thermal=0.151
 4189\Dipole=0.2521003,0.0821435,-0.0033008\DipoleDeriv=0.217086,-1.175
 186,-0.0050662,-0.0806725,1.5751007,0.0078059,0.0001686,0.0211437,0.27
 74866,-0.3469484,0.8068151,0.0021615,0.1412289,-0.4270329,-0.0011104,-
 0.0015775,-0.0095322,-0.5337546,-0.1407765,-0.117434,-0.0016929,0.1648
 679,-0.1167044,-0.0017392,-0.0000367,0.0017912,-0.2043575,-1.178946,-0
 .210545,-0.0002463,-0.8480703,-2.7741575,-0.0004886,0.0026662,-0.00717
 07,-0.8169155,0.6440651,0.2158372,-0.0061636,-0.5218244,-0.1711105,0.0
 052779,-0.0102373,-0.0037018,0.0360863,1.5780058,1.5313968,-0.0063662,
 1.1759718,1.6201877,-0.0070388,-0.0102214,-0.0122153,0.3293796,-1.8535
 335,-1.1225228,0.007098,-0.0236256,-0.400592,0.0019528,0.0139326,0.015
 8407,-0.7428634,-0.0238842,-0.0313387,0.0008445,-0.028809,-0.0867586,-
 0.0003971,0.0008952,-0.0002155,0.0549502,-0.0085451,-0.001667,0.001866
 ,-0.0137591,-0.0293932,-0.0007381,0.0018111,-0.0007683,0.1387651,-0.06
 00394,0.0195641,0.0021742,0.0150026,-0.0092649,-0.00077,0.0021435,-0.0
 008375,0.1056298,-0.1040261,-0.0215097,0.0021929,-0.0185594,-0.0105878
 ,-0.0002355,0.0022308,-0.000182,0.0806513,-0.0398291,0.0334988,0.00132
 ,0.0300874,-0.0819228,-0.0010482,0.0012802,-0.001201,0.0489357,0.00361
 41,0.0041038,0.0021159,0.0341479,-0.0305334,-0.0013506,0.0022535,-0.00
 11355,0.1654106,0.7992468,0.1408869,-0.0008191,0.1145488,0.1463083,-0.
 0023002,-0.0012179,-0.0029067,0.3442699,-0.1976247,-0.0690015,0.067323
 8,-0.0947513,-0.0618949,0.0404343,0.0695969,0.0300557,-0.1289666,-0.20
 54568,-0.0674689,-0.068296,-0.0927197,-0.0604783,-0.0360615,-0.0739448
 ,-0.0270173,-0.1293022,-0.0824579,0.0643041,0.0015532,0.0468933,-0.081
 2552,-0.0021929,0.0002446,-0.0019755,-0.0254032\Polar=110.4198489,4.62
 43334,101.0637318,-1.0332488,0.3521389,21.9199985\HyperPolar=277.07772
 32,-114.3805642,-569.0954174,158.8499077,-1.1310185,-1.7212672,6.66214
 4,34.7998451,14.0384195,-0.3114852\PG=C01 [X(C8H9)]\NImag=0\\0.8544865
 6,-0.05501080,0.58925958,-0.00926532,0.00308587,0.14147879,-0.46828213
 ,0.00945819,0.00523984,0.88866077,0.10816849,-0.08254048,-0.00150584,-
 0.01535799,0.62629005,0.00578281,-0.00027434,-0.05379028,-0.00983138,0
 .00293247,0.11323412,-0.10241897,0.03040403,0.00148578,-0.20613788,-0.
 15525322,0.00099832,0.61249810,0.00222174,-0.00815172,-0.00009117,-0.1
 4506525,-0.17411091,0.00121853,0.06344905,0.99921039,0.00131248,-0.000
 41503,0.00272352,0.00107421,0.00134567,-0.06099092,-0.00577668,0.00365
 457,0.12329891,-0.14140534,0.14919308,0.00181019,-0.02121605,0.0457291
 2,0.00061861,-0.00915024,-0.00606320,0.00004801,0.73489804,-0.06212954
 ,-0.12444541,0.00045748,0.20643951,-0.05464994,-0.00292847,-0.08245048
 ,0.02181135,0.00112522,0.01664450,0.55157276,0.00070930,-0.00226544,-0
 .06103817,0.00142986,-0.00091166,0.00822684,-0.00032088,0.00021267,-0.
 00242741,-0.00732342,0.00202966,0.13017316,0.07935465,-0.09111529,-0.0
 0148449,-0.07945911,-0.02592015,0.00092081,-0.03671534,-0.01674446,-0.
 00026498,0.00522448,0.13944262,0.00060838,0.58594959,-0.06413874,0.072
 56688,0.00120019,0.03370523,-0.05326842,-0.00071822,-0.02964415,-0.616
 46364,-0.00247891,0.00000299,-0.11257604,-0.00056463,-0.02215512,0.976
 73379,-0.00131067,0.00150442,0.00060553,0.00121853,0.00002974,0.004400
 85,-0.00034666,-0.00262613,-0.05239008,-0.00009758,-0.00230451,-0.0023
 0967,-0.00583037,0.00453757,0.13175865,0.15141990,-0.15906996,-0.00273
 555,-0.13018345,0.02345331,0.00174584,0.06529668,-0.01367045,-0.000862
 56,-0.13841729,0.09615609,0.00147151,-0.16003249,0.09436715,0.00251788
 ,0.75686777,0.11825359,-0.20465452,-0.00258510,-0.11125502,0.02137830,
 0.00151382,0.05580056,-0.01273894,-0.00074286,-0.15328960,-0.15977323,
 0.00139013,-0.06577235,0.07629214,0.00119581,0.02415752,0.62223640,-0.
 00129992,0.00096363,0.00255247,0.00108676,-0.00018602,-0.00093158,-0.0
 0055196,0.00010772,-0.00000550,0.00025773,-0.00176064,-0.05694984,0.00
 172959,-0.00082575,0.00212032,-0.00765832,0.00210821,0.14431693,-0.155
 54710,0.17706243,0.00289574,0.14339686,-0.02137177,-0.00194221,-0.0759
 2874,0.04077741,0.00120744,-0.05156120,-0.31095633,-0.00077034,-0.1407
 1199,0.05528573,0.00128969,-0.32816533,0.07744948,0.00383694,0.7272271
 3,0.01390367,-0.01416745,-0.00024432,-0.01713433,-0.00227163,0.0002147
 2,0.04502438,-0.04737543,-0.00083076,-0.04638863,0.00383789,0.00057080
 ,0.15067081,-0.18656748,-0.00253246,-0.12303998,-0.10963414,0.00129051
 ,0.02198570,0.63852968,0.00201556,-0.00230037,-0.00159089,-0.00192796,
 0.00027128,-0.00237285,0.00126471,-0.00078286,0.00623317,0.00053918,0.
 00390820,0.00913011,0.00175851,-0.00132629,-0.06095300,0.00285411,-0.0
 0124367,-0.05562075,-0.00775473,0.00234311,0.10762287,-0.14106020,-0.1
 2120033,0.00056001,-0.03805734,-0.02421031,0.00043503,-0.00309019,0.00
 144305,0.00015365,0.00713312,0.00437712,0.00003591,-0.00022297,0.00069
 923,0.00000699,-0.00101338,0.00079947,0.00006181,0.00064385,-0.0001899
 4,-0.00000646,0.17918931,-0.12408846,-0.18285399,0.00081406,-0.0037722
 1,0.00193476,0.00002015,-0.00021611,0.00054500,-0.00004157,-0.01381291
 ,-0.04193434,-0.00009623,0.00142886,-0.00092209,-0.00002294,0.00409988
 ,-0.00087373,-0.00007628,-0.00220783,0.00019534,0.00002784,0.13560500,
 0.22735152,0.00055119,0.00076730,-0.04448019,0.00053546,0.00027883,0.0
 0698103,0.00014956,-0.00006311,0.00869674,-0.00005307,-0.00030970,0.00
 838058,0.00000489,-0.00000897,0.00004360,0.00006443,-0.00004095,0.0031
 0312,-0.00000546,0.00000148,0.00021085,-0.00123531,-0.00059121,0.02367
 683,-0.02012426,0.03689459,0.00050210,-0.05097009,0.06034418,0.0005636
 7,-0.00004936,-0.02482076,-0.00005168,-0.00268288,-0.00194677,0.000103
 32,-0.00202904,-0.00154399,0.00001200,0.00040010,0.00025174,-0.0000031
 5,-0.00051044,0.00025131,0.00000688,-0.00139377,0.00074995,-0.00002311
 ,0.07876349,0.02076424,-0.02433597,-0.00041418,0.05782018,-0.28427040,
 -0.00208611,-0.00517525,-0.03473324,-0.00015501,0.00092587,0.00950573,
 0.00000340,-0.00506247,0.00167809,0.00007367,-0.00563131,-0.00478324,0
 .00004711,0.00563400,-0.00009796,-0.00007143,0.00029083,0.00060920,0.0
 0001843,-0.06910851,0.33786306,0.00041670,-0.00061931,0.00402730,0.000
 54675,-0.00211888,-0.03192096,0.00005765,0.00009252,0.00646749,0.00012
 375,0.00004569,0.00652106,-0.00001090,0.00003318,-0.00042894,-0.000041
 46,-0.00003594,0.00004711,0.00004347,-0.00000461,-0.00006457,-0.000024
 53,0.00001309,-0.00357441,-0.00113756,0.00259088,0.01782753,0.00223979
 ,-0.00703619,-0.00006340,-0.04218760,0.00478946,0.00064319,-0.23507496
 ,0.10920011,0.00302305,0.00059876,0.00723868,0.00002916,-0.00948441,0.
 01509123,0.00025907,-0.00562251,-0.00502996,0.00004636,0.00743776,-0.0
 0056943,0.00000621,-0.00075104,0.00008457,0.00000267,-0.00077177,-0.00
 082504,0.00001184,0.28307546,-0.00205884,-0.00082247,0.00002034,-0.013
 07591,0.00627040,0.00015697,0.10777115,-0.09752244,-0.00165110,0.00016
 634,-0.00071155,-0.00000617,0.03322468,-0.03200708,-0.00060321,0.00033
 744,0.00047383,-0.00000205,-0.00260840,-0.00258888,-0.00002180,-0.0004
 4366,0.00002666,0.00000883,-0.00123766,-0.00028700,0.00001095,-0.12286
 460,0.12903129,-0.00003675,0.00008360,0.00023236,0.00055273,-0.0000665
 9,0.00741853,0.00301623,-0.00166984,-0.03738247,-0.00000682,-0.0000956
 9,0.00004101,0.00035042,-0.00037599,0.00511744,0.00007335,0.00006627,0
 .00001914,-0.00000380,-0.00004714,0.00826352,-0.00000037,0.00000223,-0
 .00057625,0.00000973,0.00000579,0.00055015,-0.00390140,0.00208568,0.02
 039122,-0.00316304,0.00390442,0.00006077,0.00403576,-0.00075917,0.0000
 5768,-0.00874734,-0.01267943,0.00012083,-0.00024288,-0.00555375,-0.000
 02323,-0.23789855,-0.10518169,0.00194707,0.00235303,0.00601725,0.00001
 708,-0.04258116,-0.00283540,0.00062019,-0.00001316,-0.00012032,-0.0000
 0943,-0.00012918,-0.00001877,0.00000029,0.00080189,0.00015409,-0.00005
 850,0.28705292,0.00071646,-0.00052014,-0.00001188,0.00097904,-0.002987
 86,-0.00007151,-0.03284936,-0.02977833,0.00023124,-0.00016506,0.000777
 27,0.00000572,-0.10191643,-0.09118866,0.00103108,0.00121414,-0.0018119
 3,-0.00003161,0.01482419,0.00644491,-0.00019313,-0.00004742,0.00001363
 ,0.00000419,-0.00062062,-0.00060185,0.00000522,-0.00021177,-0.00130863
 ,0.00001559,0.11631753,0.12126928,0.00004714,-0.00005656,0.00000773,0.
 00006008,-0.00005002,0.00888377,0.00002359,-0.00002273,0.00600974,0.00
 000380,0.00007979,0.00012127,0.00195958,0.00107537,-0.04102532,-0.0000
 1117,-0.00009592,0.00138510,0.00071552,0.00002707,0.00781603,-0.000009
 16,0.00000559,-0.00072689,-0.00000235,-0.00000178,-0.00011483,-0.00005
 990,0.00001142,-0.00390153,-0.00274679,-0.00096422,0.02214260,-0.00116
 937,-0.00059445,0.00007824,0.00064569,0.00003874,-0.00000554,-0.000272
 07,-0.00053726,0.00000165,0.00713856,-0.00607984,-0.00002375,-0.003285
 64,-0.00126560,0.00013003,-0.12930381,0.11798596,0.00165899,-0.0363522
 7,0.02502854,0.00067910,0.00012719,-0.00026108,-0.00001563,0.00001010,
 0.00005819,-0.00000487,-0.00000291,0.00004995,-0.00000769,-0.00077183,
 0.00046225,0.00000184,0.16726918,-0.00271753,-0.00186770,0.00000260,0.
 00031994,-0.00017318,-0.00000588,-0.00040110,0.00036593,0.00000648,0.0
 1266936,-0.04120176,-0.00040831,0.00019994,-0.00026041,-0.00004227,0.1
 1941872,-0.19349590,-0.00225679,0.00547801,0.00157503,-0.00009843,0.00
 025125,-0.00086839,-0.00000333,0.00004160,-0.00000207,0.00000104,0.000
 09731,0.00000086,0.00000198,-0.00002120,0.00002762,0.00000439,-0.13144
 391,0.23800454,0.00005638,-0.00001725,0.00484469,0.00000306,-0.0000037
 4,0.00019191,-0.00000127,0.00000842,0.00007889,0.00008010,-0.00018265,
 0.00803948,0.00014484,-0.00002674,0.00766976,0.00167302,-0.00222947,-0
 .04547693,0.00056904,-0.00034700,0.00737242,-0.00001341,0.00000436,-0.
 00093734,-0.00000446,0.00000150,-0.00036430,-0.00000721,0.00000261,-0.
 00064330,-0.00000034,-0.00000180,-0.00080116,-0.00248802,0.00272761,0.
 02408178,0.00119171,-0.00125455,-0.00002166,-0.00110953,0.00003973,0.0
 0001315,-0.00165701,0.00106370,0.00002337,-0.00255184,0.00355528,0.000
 10512,-0.00045233,0.02549144,0.00020159,-0.02296358,-0.03759333,0.0001
 5080,-0.05121890,-0.06602105,-0.00003479,0.00000982,-0.00002391,-0.000
 00265,0.00002814,-0.00004340,0.00000222,-0.00014808,0.00061089,0.00000
 919,-0.00068162,0.00126760,0.00001710,-0.00151712,-0.00073401,-0.00002
 022,0.08168251,0.00298682,-0.00337355,-0.00005568,-0.00226722,0.000896
 33,0.00003360,0.00340599,-0.00075309,-0.00004502,-0.00002592,0.0072399
 6,0.00001268,0.00436511,-0.03473708,-0.00025417,-0.02055955,-0.0215167
 5,0.00013715,-0.06234784,-0.28492103,-0.00046901,-0.00003794,0.0000152
 9,0.00000129,0.00000054,-0.00017325,-0.00000215,0.00002279,-0.00060409
 ,-0.00000504,0.00079775,-0.00037458,-0.00001287,-0.00024423,0.00055712
 ,0.00002022,0.07433261,0.33802064,-0.00000195,0.00000198,0.00000225,0.
 00000306,0.00000423,-0.00007413,0.00003475,-0.00001511,-0.00023671,0.0
 0009178,-0.00003115,0.00452008,0.00009788,-0.00052439,0.00549427,0.000
 23253,0.00035342,0.00357335,-0.00001628,-0.00042082,-0.02845890,-0.000
 00321,0.00000168,-0.00018689,0.00000248,-0.00000143,0.00022572,0.00000
 607,-0.00001247,0.00032380,0.00001484,-0.00001852,0.00018575,-0.000016
 56,0.00002653,-0.00284996,-0.00046561,0.00063954,0.01619662,-0.0491599
 7,0.02872786,0.00081206,-0.00090464,-0.00098006,0.00001289,0.00310765,
 0.00169255,-0.00002892,-0.30189734,0.00294820,0.00288040,-0.00273236,0
 .00076784,0.00004066,-0.06003405,-0.03637398,0.00061597,0.01060322,0.0
 0072166,-0.00010273,-0.00105790,0.00177466,0.00001606,-0.00035450,0.00
 020091,0.00001682,-0.00018565,-0.00004408,0.00000480,0.00015372,0.0000
 4286,-0.00000126,-0.00072077,-0.00135814,-0.00001846,-0.00050035,-0.00
 050587,0.00001794,0.59996952,0.04039623,-0.01215875,-0.00055087,-0.000
 35783,-0.00311593,-0.00001227,0.00034729,0.00003934,-0.00000117,0.0026
 2198,-0.06331692,-0.00005444,-0.00060895,0.00046583,0.00000774,-0.0412
 7792,-0.01268805,0.00039992,0.00167586,-0.00284218,-0.00005190,0.00252
 497,-0.00303111,-0.00005846,0.00071484,-0.00035322,-0.00002049,-0.0000
 0814,0.00002015,-0.00000062,0.00002512,0.00002838,-0.00000008,-0.00286
 826,-0.00224740,0.00004272,-0.00071662,-0.00031813,0.00000614,-0.00990
 415,0.53325721,0.00086064,-0.00041244,0.00337100,0.00003042,-0.0000148
 6,0.00060039,-0.00003960,-0.00001614,-0.00011240,0.00311170,-0.0000630
 6,-0.05985836,0.00003566,-0.00001438,-0.00005806,0.00059080,0.00035107
 ,0.00380247,-0.00009739,-0.00002733,0.00221814,0.00001701,-0.00003473,
 -0.00027863,0.00002105,-0.00000945,0.00097152,0.00000530,-0.00000028,0
 .00016709,-0.00000091,-0.00000033,0.00002495,-0.00002853,0.00001101,-0
 .00131416,0.00001793,-0.00000061,0.00114810,-0.00193258,0.00047326,0.4
 7190363,-0.00097997,-0.00013367,0.00034619,0.00089464,0.00020789,-0.00
 013634,-0.00084115,-0.00011820,0.00004303,-0.03025994,-0.01926459,0.02
 333409,0.00120191,-0.00071539,0.00005712,0.00101278,0.00369290,0.00204
 535,-0.00309205,-0.00068388,-0.00050348,-0.00020984,0.00048190,0.00021
 217,0.00001210,0.00004449,-0.00008882,0.00005289,0.00001477,-0.0000154
 3,-0.00008386,0.00000216,0.00000123,0.00000265,0.00006613,0.00020475,-
 0.00008194,0.00003330,-0.00035604,-0.06080168,-0.03657231,0.06216907,0
 .08389433,0.00137710,-0.00105899,0.00007870,-0.00034399,0.00032934,-0.
 00005045,-0.00006088,-0.00018504,-0.00004714,-0.00995848,0.00320617,0.
 00308764,-0.00007938,0.00018623,-0.00002360,0.00053541,0.00057111,0.00
 050500,-0.00023473,-0.00013327,-0.00010338,0.00007548,-0.00017836,0.00
 006451,0.00000871,-0.00001803,0.00000227,-0.00000244,0.00001095,-0.000
 00372,-0.00001507,-0.00000107,0.00000197,-0.00000074,0.00006705,0.0000
 4959,0.00001374,0.00001716,-0.00002043,-0.03508936,-0.09695824,0.09074
 729,0.04766983,0.11058881,-0.00001248,0.00038480,0.00009616,-0.0000030
 6,-0.00018068,0.00007630,0.00015943,0.00010139,0.00001581,0.01249680,0
 .00378595,0.00128050,-0.00014572,0.00002532,-0.00003146,-0.00072519,-0
 .00087415,-0.00102029,0.00054084,0.00012610,0.00010470,0.00020065,-0.0
 0026045,-0.00017418,-0.00001030,0.00000378,-0.00003850,-0.00001287,-0.
 00000804,-0.00000723,0.00001727,-0.00000107,-0.00000379,-0.00000713,-0
 .00004391,0.00000213,-0.00000264,-0.00002208,0.00007202,0.06099597,0.0
 9086394,-0.18849389,-0.07814140,-0.11178992,0.22504011,-0.00092453,-0.
 00016472,-0.00032842,0.00090785,0.00022762,0.00012233,-0.00086133,-0.0
 0013070,-0.00002283,-0.03136527,-0.01842578,-0.02311959,0.00121641,-0.
 00071819,-0.00009633,0.00114673,0.00382178,-0.00204757,-0.00314750,-0.
 00068887,0.00058301,-0.00018450,0.00044719,-0.00019305,0.00001348,0.00
 004391,0.00009314,0.00005388,0.00001474,0.00001458,-0.00008478,0.00000
 151,0.00000092,-0.00000019,0.00006516,-0.00020769,-0.00006736,0.000033
 39,0.00035999,-0.06378928,-0.03630409,-0.06668877,0.00464936,0.0008035
 7,0.00386051,0.08772789,0.00135377,-0.00108452,-0.00016102,-0.00036918
 ,0.00032781,0.00005972,-0.00004399,-0.00018493,0.00004380,-0.00956323,
 0.00357049,-0.00276423,-0.00010227,0.00020247,0.00002907,0.00046899,0.
 00051519,-0.00044299,-0.00017313,-0.00013214,0.00010389,0.00006027,-0.
 00015958,-0.00006926,0.00000831,-0.00001903,0.00000288,-0.00000382,0.0
 0001061,0.00000384,-0.00001359,-0.00000127,-0.00000160,0.00000070,0.00
 006707,-0.00004826,0.00001404,0.00001547,0.00001359,-0.03482533,-0.090
 11203,-0.08608390,0.00118141,0.00713037,0.00931819,0.04727573,0.102155
 37,0.00009055,-0.00040820,0.00007806,-0.00000764,0.00018292,0.00007850
 ,-0.00015480,-0.00010663,0.00002044,-0.01220339,-0.00328080,0.00197990
 ,0.00013261,-0.00001379,-0.00003236,0.00076304,0.00088259,-0.00100589,
 -0.00052441,-0.00011957,0.00010968,-0.00017842,0.00022951,-0.00015807,
 0.00000945,-0.00000437,-0.00003959,0.00001171,0.00000790,-0.00000796,-
 0.00001664,0.00000069,-0.00000359,0.00000700,0.00004128,0.00000467,0.0
 0000773,0.00002241,0.00006433,-0.06532432,-0.08615258,-0.19192858,-0.0
 0481184,-0.00772726,-0.03495347,0.08337273,0.10590381,0.22918051,-0.00
 445727,-0.00006618,0.00010783,-0.00003967,0.00085035,0.00000126,0.0000
 4841,-0.00001291,-0.00000012,-0.02424611,0.03000597,0.00087426,0.00007
 638,-0.00004783,0.00000098,-0.00276025,0.00108524,0.00005343,-0.000491
 98,-0.00003343,0.00000274,-0.00004848,-0.00016944,0.00000125,-0.000211
 28,0.00008220,-0.00000453,-0.00003172,-0.00001124,-0.00000027,-0.00000
 065,-0.00001855,-0.00000016,-0.00179648,-0.00193149,0.00002991,0.00003
 772,0.00000928,-0.00000168,-0.07169703,0.08031061,0.00192817,0.0046303
 5,-0.00469822,0.00078939,0.00470973,-0.00526816,-0.00117343,0.09627941
 ,0.00000064,0.00020913,-0.00003912,0.00027730,-0.00003627,-0.00000270,
 -0.00010747,0.00002449,0.00000159,0.01131555,-0.00291382,-0.00024161,0
 .00014410,-0.00013765,0.00000017,-0.00095819,0.00050359,0.00002282,-0.
 00027450,0.00014960,0.00000797,0.00000245,0.00013122,0.00000016,0.0000
 1273,0.00001890,0.00000363,0.00002712,0.00000808,-0.00000035,-0.000017
 92,0.00001423,0.00000017,-0.00032908,-0.00054753,-0.00000013,-0.000001
 68,0.00001002,-0.00000280,0.08220438,-0.24667065,-0.00490512,0.0040937
 8,-0.02357400,0.00857094,0.00369820,-0.02230113,-0.00945805,-0.1000872
 7,0.29511217,0.00008029,-0.00001797,0.00087806,-0.00000696,-0.00000755
 ,-0.00000955,-0.00000010,-0.00000177,0.00000147,0.00050234,-0.00048256
 ,0.00417019,-0.00000375,0.00000414,0.00001729,0.00005293,-0.00000876,0
 .00008940,0.00001017,0.00000063,-0.00001861,-0.00000020,0.00000484,-0.
 00000046,0.00000186,-0.00000064,-0.00009261,0.00000035,0.00000039,-0.0
 0000515,-0.00000033,0.00000036,0.00000047,0.00004086,0.00003595,0.0001
 0155,-0.00000055,-0.00000013,0.00000086,0.00199486,-0.00489073,-0.0421
 6510,-0.00436016,0.02522902,-0.00196468,0.00429747,-0.02590760,-0.0033
 8638,-0.00260906,0.00604240,0.04238373\\-0.00002319,-0.00000825,0.0000
 0999,0.00003037,0.00003392,-0.00000170,-0.00002002,-0.00003018,-0.0000
 0994,0.00000577,-0.00001793,-0.00000758,-0.00000455,0.00001165,0.00000
 130,-0.00000724,0.00001605,0.00000590,0.00001778,-0.00000774,-0.000006
 57,0.00000023,0.00000718,-0.00000249,-0.00000354,-0.00000891,0.0000016
 3,0.00000472,0.00000192,0.00000124,0.00000361,0.00000082,0.00000339,0.
 00000275,0.00000019,-0.00000129,-0.00000540,0.00000523,0.00000443,-0.0
 0000968,-0.00000363,0.00000066,0.00000176,0.00000378,-0.00000106,0.000
 00498,-0.00000007,0.00000422,0.00000163,-0.00000405,-0.00000212\\\@


 THE RED LIGHT IS ALWAYS LONGER THAN THE GREEN LIGHT.

                     -- PETER'S THEORY OF RELATIVITY
 Job cpu time:       0 days  0 hours  0 minutes  0.6 seconds.
 Elapsed time:       0 days  0 hours  0 minutes  0.5 seconds.
 File lengths (MBytes):  RWF=     15 Int=      0 D2E=      0 Chk=      2 Scr=      1
 Normal termination of Gaussian 16 at Thu Jun 12 22:46:04 2025.
