 Entering Gaussian System, Link 0=g16
 Input=/home/gaussian/Documents/program files/Aromaticity/AM1 HF3-21G*/cycloheptatrienyl_anion/opt freq/cycloheptatrienyl_anion_isomer_opt.com
 Output=/home/gaussian/Documents/program files/Aromaticity/AM1 HF3-21G*/cycloheptatrienyl_anion/opt freq/cycloheptatrienyl_anion_isomer_opt.log
 Initial command:
 /usr/local/g16/l1.exe "/home/gaussian/tmp/Gau-143724.inp" -scrdir="/home/gaussian/tmp/"
 Entering Link 1 = /usr/local/g16/l1.exe PID=    143727.
  
 Copyright (c) 1988-2017, Gaussian, Inc.  All Rights Reserved.
  
 This is part of the Gaussian(R) 16 program.  It is based on
 the Gaussian(R) 09 system (copyright 2009, Gaussian, Inc.),
 the Gaussian(R) 03 system (copyright 2003, Gaussian, Inc.),
 the Gaussian(R) 98 system (copyright 1998, Gaussian, Inc.),
 the Gaussian(R) 94 system (copyright 1995, Gaussian, Inc.),
 the Gaussian 92(TM) system (copyright 1992, Gaussian, Inc.),
 the Gaussian 90(TM) system (copyright 1990, Gaussian, Inc.),
 the Gaussian 88(TM) system (copyright 1988, Gaussian, Inc.),
 the Gaussian 86(TM) system (copyright 1986, Carnegie Mellon
 University), and the Gaussian 82(TM) system (copyright 1983,
 Carnegie Mellon University). Gaussian is a federally registered
 trademark of Gaussian, Inc.
  
 This software contains proprietary and confidential information,
 including trade secrets, belonging to Gaussian, Inc.
  
 This software is provided under written license and may be
 used, copied, transmitted, or stored only in accord with that
 written license.
  
 The following legend is applicable only to US Government
 contracts under FAR:
  
                    RESTRICTED RIGHTS LEGEND
  
 Use, reproduction and disclosure by the US Government is
 subject to restrictions as set forth in subparagraphs (a)
 and (c) of the Commercial Computer Software - Restricted
 Rights clause in FAR 52.227-19.
  
 Gaussian, Inc.
 340 Quinnipiac St., Bldg. 40, Wallingford CT 06492
  
  
 ---------------------------------------------------------------
 Warning -- This program may not be used in any manner that
 competes with the business of Gaussian, Inc. or will provide
 assistance to any competitor of Gaussian, Inc.  The licensee
 of this program is prohibited from giving any competitor of
 Gaussian, Inc. access to this program.  By using this program,
 the user acknowledges that Gaussian, Inc. is engaged in the
 business of creating and licensing software in the field of
 computational chemistry and represents and warrants to the
 licensee that it is not a competitor of Gaussian, Inc. and that
 it will not use this program in any manner prohibited above.
 ---------------------------------------------------------------
  

 Cite this work as:
 Gaussian 16, Revision B.01,
 M. J. Frisch, G. W. Trucks, H. B. Schlegel, G. E. Scuseria, 
 M. A. Robb, J. R. Cheeseman, G. Scalmani, V. Barone, 
 G. A. Petersson, H. Nakatsuji, X. Li, M. Caricato, A. V. Marenich, 
 J. Bloino, B. G. Janesko, R. Gomperts, B. Mennucci, H. P. Hratchian, 
 J. V. Ortiz, A. F. Izmaylov, J. L. Sonnenberg, D. Williams-Young, 
 F. Ding, F. Lipparini, F. Egidi, J. Goings, B. Peng, A. Petrone, 
 T. Henderson, D. Ranasinghe, V. G. Zakrzewski, J. Gao, N. Rega, 
 G. Zheng, W. Liang, M. Hada, M. Ehara, K. Toyota, R. Fukuda, 
 J. Hasegawa, M. Ishida, T. Nakajima, Y. Honda, O. Kitao, H. Nakai, 
 T. Vreven, K. Throssell, J. A. Montgomery, Jr., J. E. Peralta, 
 F. Ogliaro, M. J. Bearpark, J. J. Heyd, E. N. Brothers, K. N. Kudin, 
 V. N. Staroverov, T. A. Keith, R. Kobayashi, J. Normand, 
 K. Raghavachari, A. P. Rendell, J. C. Burant, S. S. Iyengar, 
 J. Tomasi, M. Cossi, J. M. Millam, M. Klene, C. Adamo, R. Cammi, 
 J. W. Ochterski, R. L. Martin, K. Morokuma, O. Farkas, 
 J. B. Foresman, and D. J. Fox, Gaussian, Inc., Wallingford CT, 2016.
 
 ******************************************
 Gaussian 16:  EM64L-G16RevB.01 20-Dec-2017
                12-Jun-2025 
 ******************************************
 %chk=cycloheptatrienyl_anion_isomer_opt.chk
 -----------------------------------------
 # opt freq am1 pop=full geom=connectivity
 -----------------------------------------
 1/18=20,19=15,26=1,38=1,57=2/1,3;
 2/9=110,12=2,17=6,18=5,40=1/2;
 3/5=2,25=1,41=700000,71=1/1,2,3;
 4/35=1/1;
 5/5=2,35=1,38=5/2;
 6/7=3,28=1/1;
 7//1,2,3,16;
 1/18=20,19=15,26=1/3(2);
 2/9=110/2;
 99//99;
 2/9=110/2;
 3/5=2,25=1,41=700000,71=1,135=20/1,2,3;
 4/5=5,16=3,35=1/1;
 5/5=2,35=1,38=5/2;
 7//1,2,3,16;
 1/18=20,19=15,26=1/3(-5);
 2/9=110/2;
 6/7=3,19=2,28=1/1;
 99/9=1/99;
 ------------
 Optimisation
 ------------
 Symbolic Z-matrix:
 Charge = -1 Multiplicity = 1
 C                    -0.51901   1.34916   0.00333 
 C                     0.84967   1.49124   0.11286 
 C                     1.89715   0.5807    0.03559 
 C                    -1.26939   0.12186   0.0311 
 C                     1.7429   -0.79086  -0.32372 
 C                    -0.54099  -1.07887   0.65015 
 C                     0.63607  -1.53456  -0.18018 
 H                    -1.10117   2.25277  -0.07078 
 H                     1.17302   2.51972   0.21823 
 H                     2.89876   0.97514   0.06864 
 H                     2.59571  -1.25562  -0.80275 
 H                     0.57684  -2.50975  -0.63225 
 C                    -2.55191  -0.00419  -0.35425 
 H                    -3.10186  -0.9167   -0.20425 
 H                    -3.07795   0.8004   -0.83887 
 H                    -0.18625  -0.77692   1.63316 
 H                    -1.24405  -1.89588   0.77959 
 

 GradGradGradGradGradGradGradGradGradGradGradGradGradGradGradGradGradGrad
 Berny optimization.
 Initialization pass.
                           ----------------------------
                           !    Initial Parameters    !
                           ! (Angstroms and Degrees)  !
 --------------------------                            --------------------------
 ! Name  Definition              Value          Derivative Info.                !
 --------------------------------------------------------------------------------
 ! R1    R(1,2)                  1.3804         estimate D2E/DX2                !
 ! R2    R(1,4)                  1.4388         estimate D2E/DX2                !
 ! R3    R(1,8)                  1.0775         estimate D2E/DX2                !
 ! R4    R(2,3)                  1.3901         estimate D2E/DX2                !
 ! R5    R(2,9)                  1.0833         estimate D2E/DX2                !
 ! R6    R(3,5)                  1.4262         estimate D2E/DX2                !
 ! R7    R(3,10)                 1.077          estimate D2E/DX2                !
 ! R8    R(4,6)                  1.5348         estimate D2E/DX2                !
 ! R9    R(4,13)                 1.3451         estimate D2E/DX2                !
 ! R10   R(5,7)                  1.3412         estimate D2E/DX2                !
 ! R11   R(5,11)                 1.0829         estimate D2E/DX2                !
 ! R12   R(6,7)                  1.5108         estimate D2E/DX2                !
 ! R13   R(6,16)                 1.0878         estimate D2E/DX2                !
 ! R14   R(6,17)                 1.0856         estimate D2E/DX2                !
 ! R15   R(7,12)                 1.0765         estimate D2E/DX2                !
 ! R16   R(13,14)                1.0759         estimate D2E/DX2                !
 ! R17   R(13,15)                1.0765         estimate D2E/DX2                !
 ! A1    A(2,1,4)              127.1127         estimate D2E/DX2                !
 ! A2    A(2,1,8)              117.0562         estimate D2E/DX2                !
 ! A3    A(4,1,8)              115.7795         estimate D2E/DX2                !
 ! A4    A(1,2,3)              132.4795         estimate D2E/DX2                !
 ! A5    A(1,2,9)              113.6662         estimate D2E/DX2                !
 ! A6    A(3,2,9)              113.7279         estimate D2E/DX2                !
 ! A7    A(2,3,5)              124.2249         estimate D2E/DX2                !
 ! A8    A(2,3,10)             117.3352         estimate D2E/DX2                !
 ! A9    A(5,3,10)             117.4214         estimate D2E/DX2                !
 ! A10   A(1,4,6)              115.3161         estimate D2E/DX2                !
 ! A11   A(1,4,13)             124.8681         estimate D2E/DX2                !
 ! A12   A(6,4,13)             119.6542         estimate D2E/DX2                !
 ! A13   A(3,5,7)              126.5523         estimate D2E/DX2                !
 ! A14   A(3,5,11)             116.0399         estimate D2E/DX2                !
 ! A15   A(7,5,11)             117.3388         estimate D2E/DX2                !
 ! A16   A(4,6,7)              112.5848         estimate D2E/DX2                !
 ! A17   A(4,6,16)             107.5835         estimate D2E/DX2                !
 ! A18   A(4,6,17)             109.2395         estimate D2E/DX2                !
 ! A19   A(7,6,16)             109.044          estimate D2E/DX2                !
 ! A20   A(7,6,17)             110.065          estimate D2E/DX2                !
 ! A21   A(16,6,17)            108.2007         estimate D2E/DX2                !
 ! A22   A(5,7,6)              122.3115         estimate D2E/DX2                !
 ! A23   A(5,7,12)             120.1847         estimate D2E/DX2                !
 ! A24   A(6,7,12)             117.4618         estimate D2E/DX2                !
 ! A25   A(4,13,14)            121.7964         estimate D2E/DX2                !
 ! A26   A(4,13,15)            121.6579         estimate D2E/DX2                !
 ! A27   A(14,13,15)           116.5424         estimate D2E/DX2                !
 ! D1    D(4,1,2,3)             13.3867         estimate D2E/DX2                !
 ! D2    D(4,1,2,9)           -171.0435         estimate D2E/DX2                !
 ! D3    D(8,1,2,3)           -169.3502         estimate D2E/DX2                !
 ! D4    D(8,1,2,9)              6.2196         estimate D2E/DX2                !
 ! D5    D(2,1,4,6)             19.3693         estimate D2E/DX2                !
 ! D6    D(2,1,4,13)          -165.2871         estimate D2E/DX2                !
 ! D7    D(8,1,4,6)           -157.924          estimate D2E/DX2                !
 ! D8    D(8,1,4,13)            17.4197         estimate D2E/DX2                !
 ! D9    D(1,2,3,5)              6.3708         estimate D2E/DX2                !
 ! D10   D(1,2,3,10)           174.501          estimate D2E/DX2                !
 ! D11   D(9,2,3,5)           -169.1968         estimate D2E/DX2                !
 ! D12   D(9,2,3,10)            -1.0666         estimate D2E/DX2                !
 ! D13   D(2,3,5,7)            -25.4879         estimate D2E/DX2                !
 ! D14   D(2,3,5,11)           151.3936         estimate D2E/DX2                !
 ! D15   D(10,3,5,7)           166.3913         estimate D2E/DX2                !
 ! D16   D(10,3,5,11)          -16.7273         estimate D2E/DX2                !
 ! D17   D(1,4,6,7)            -67.1673         estimate D2E/DX2                !
 ! D18   D(1,4,6,16)            53.0004         estimate D2E/DX2                !
 ! D19   D(1,4,6,17)           170.2353         estimate D2E/DX2                !
 ! D20   D(13,4,6,7)           117.2284         estimate D2E/DX2                !
 ! D21   D(13,4,6,16)         -122.6039         estimate D2E/DX2                !
 ! D22   D(13,4,6,17)           -5.3691         estimate D2E/DX2                !
 ! D23   D(1,4,13,14)         -172.578          estimate D2E/DX2                !
 ! D24   D(1,4,13,15)            8.1009         estimate D2E/DX2                !
 ! D25   D(6,4,13,14)            2.578          estimate D2E/DX2                !
 ! D26   D(6,4,13,15)         -176.7431         estimate D2E/DX2                !
 ! D27   D(3,5,7,6)            -12.5899         estimate D2E/DX2                !
 ! D28   D(3,5,7,12)           169.8293         estimate D2E/DX2                !
 ! D29   D(11,5,7,6)           170.5645         estimate D2E/DX2                !
 ! D30   D(11,5,7,12)           -7.0164         estimate D2E/DX2                !
 ! D31   D(4,6,7,5)             68.1356         estimate D2E/DX2                !
 ! D32   D(4,6,7,12)          -114.2211         estimate D2E/DX2                !
 ! D33   D(16,6,7,5)           -51.1861         estimate D2E/DX2                !
 ! D34   D(16,6,7,12)          126.4573         estimate D2E/DX2                !
 ! D35   D(17,6,7,5)          -169.7321         estimate D2E/DX2                !
 ! D36   D(17,6,7,12)            7.9112         estimate D2E/DX2                !
 --------------------------------------------------------------------------------
 Trust Radius=3.00D-01 FncErr=1.00D-07 GrdErr=1.00D-07 EigMax=2.50D+02 EigMin=1.00D-04
 Number of steps in this run=     90 maximum allowed number of steps=    102.
 GradGradGradGradGradGradGradGradGradGradGradGradGradGradGradGradGradGrad

                          Input orientation:                          
 ---------------------------------------------------------------------
 Center     Atomic      Atomic             Coordinates (Angstroms)
 Number     Number       Type             X           Y           Z
 ---------------------------------------------------------------------
      1          6           0       -0.519008    1.349158    0.003334
      2          6           0        0.849669    1.491239    0.112857
      3          6           0        1.897150    0.580696    0.035589
      4          6           0       -1.269394    0.121861    0.031102
      5          6           0        1.742902   -0.790858   -0.323722
      6          6           0       -0.540992   -1.078872    0.650148
      7          6           0        0.636071   -1.534564   -0.180180
      8          1           0       -1.101171    2.252769   -0.070777
      9          1           0        1.173016    2.519723    0.218226
     10          1           0        2.898764    0.975144    0.068643
     11          1           0        2.595707   -1.255622   -0.802747
     12          1           0        0.576838   -2.509748   -0.632247
     13          6           0       -2.551906   -0.004186   -0.354249
     14          1           0       -3.101857   -0.916703   -0.204254
     15          1           0       -3.077946    0.800396   -0.838870
     16          1           0       -0.186245   -0.776919    1.633163
     17          1           0       -1.244049   -1.895882    0.779590
 ---------------------------------------------------------------------
                    Distance matrix (angstroms):
                    1          2          3          4          5
     1  C    0.000000
     2  C    1.380384   0.000000
     3  C    2.535625   1.390063   0.000000
     4  C    1.438787   2.524343   3.199617   0.000000
     5  C    3.130954   2.489264   1.426204   3.167473   0.000000
     6  C    2.512803   2.971210   3.012704   1.534779   2.499509
     7  C    3.111870   3.047454   2.472084   2.533610   1.341185
     8  H    1.077460   2.102243   3.434686   2.139964   4.173296
     9  H    2.068658   1.083252   2.077872   3.427845   3.402708
    10  H    3.438796   2.113551   1.076992   4.254767   2.146795
    11  H    4.139577   3.381157   2.136084   4.187096   1.082934
    12  H    4.061526   4.078911   3.426379   3.282373   2.099875
    13  C    2.468214   3.745023   4.504238   1.345073   4.366367
    14  H    3.442140   4.638243   5.223964   2.119417   4.847865
    15  H    2.749293   4.099903   5.056138   2.118519   5.102748
    16  H    2.699496   2.920443   2.955655   2.132514   2.747945
    17  H    3.414461   4.037422   4.068674   2.152246   3.370497
                    6          7          8          9         10
     6  C    0.000000
     7  C    1.510820   0.000000
     8  H    3.454470   4.168197   0.000000
     9  H    4.009273   4.109049   2.307967   0.000000
    10  H    4.048339   3.388263   4.201338   2.320842   0.000000
    11  H    3.461362   2.074987   5.148931   4.161690   2.414018
    12  H    2.222946   1.076502   5.080603   5.135593   4.245828
    13  C    2.491493   3.540558   2.697931   4.535735   5.554073
    14  H    2.704502   3.788725   3.750482   5.501096   6.297699
    15  H    3.490696   4.436196   2.570407   4.705764   6.047742
    16  H    1.087814   2.130362   3.594372   3.836338   3.877464
    17  H    1.085610   2.141626   4.237316   5.065067   5.090298
                   11         12         13         14         15
    11  H    0.000000
    12  H    2.382800   0.000000
    13  C    5.316499   4.017980   0.000000
    14  H    5.738928   4.031596   1.075933   0.000000
    15  H    6.034803   4.935301   1.076535   1.830775   0.000000
    16  H    3.728548   2.952469   3.184851   3.449121   4.118350
    17  H    4.202077   2.384480   2.564097   2.319093   3.640399
                   16         17
    16  H    0.000000
    17  H    1.760572   0.000000
 Stoichiometry    C8H9(1-)
 Framework group  C1[X(C8H9)]
 Deg. of freedom    45
 Full point group                 C1      NOp   1
 Largest Abelian subgroup         C1      NOp   1
 Largest concise Abelian subgroup C1      NOp   1
                         Standard orientation:                         
 ---------------------------------------------------------------------
 Center     Atomic      Atomic             Coordinates (Angstroms)
 Number     Number       Type             X           Y           Z
 ---------------------------------------------------------------------
      1          6           0       -0.519008    1.349158    0.003334
      2          6           0        0.849669    1.491239    0.112857
      3          6           0        1.897150    0.580696    0.035589
      4          6           0       -1.269394    0.121861    0.031102
      5          6           0        1.742902   -0.790858   -0.323722
      6          6           0       -0.540992   -1.078872    0.650148
      7          6           0        0.636071   -1.534564   -0.180180
      8          1           0       -1.101171    2.252769   -0.070777
      9          1           0        1.173016    2.519723    0.218226
     10          1           0        2.898764    0.975144    0.068643
     11          1           0        2.595707   -1.255622   -0.802747
     12          1           0        0.576838   -2.509748   -0.632247
     13          6           0       -2.551906   -0.004186   -0.354249
     14          1           0       -3.101857   -0.916703   -0.204254
     15          1           0       -3.077946    0.800396   -0.838870
     16          1           0       -0.186245   -0.776919    1.633163
     17          1           0       -1.244049   -1.895882    0.779590
 ---------------------------------------------------------------------
 Rotational constants (GHZ):           3.5550632           2.0215347           1.3845165
 Standard basis: VSTO-6G (5D, 7F)
 There are    41 symmetry adapted cartesian basis functions of A   symmetry.
 There are    41 symmetry adapted basis functions of A   symmetry.
    41 basis functions,   246 primitive gaussians,    41 cartesian basis functions
    21 alpha electrons       21 beta electrons
       nuclear repulsion energy       192.9040110010 Hartrees.
 Integral buffers will be    131072 words long.
 Regular integral format.
 Two-electron integral symmetry is turned off.
 Do NDO integrals.
 One-electron integrals computed using PRISM.
 NBasis=    41 RedAO= F EigKep=  0.00D+00  NBF=    41
 NBsUse=    41 1.00D-04 EigRej=  0.00D+00 NBFU=    41
 Simple Huckel Guess.
 Keep J ints in memory in canonical form, NReq=863514.
 Overlap will be assumed to be unity.
 Requested convergence on RMS density matrix=1.00D-08 within 128 cycles.
 Requested convergence on MAX density matrix=1.00D-06.
 Requested convergence on             energy=1.00D-06.
 No special actions if energy rises.
 SCF Done:  E(RAM1) =  0.497692417867E-01 A.U. after   14 cycles
            NFock= 13  Conv=0.33D-08     -V/T= 1.0008

 **********************************************************************

            Population analysis using the SCF Density.

 **********************************************************************

 Orbital symmetries:
       Occupied  (A) (A) (A) (A) (A) (A) (A) (A) (A) (A) (A) (A)
                 (A) (A) (A) (A) (A) (A) (A) (A) (A)
       Virtual   (A) (A) (A) (A) (A) (A) (A) (A) (A) (A) (A) (A)
                 (A) (A) (A) (A) (A) (A) (A) (A)
 The electronic state is 1-A.
 Alpha  occ. eigenvalues --   -1.22788  -1.06967  -1.01831  -0.85692  -0.77098
 Alpha  occ. eigenvalues --   -0.66272  -0.51910  -0.47996  -0.45431  -0.38875
 Alpha  occ. eigenvalues --   -0.36268  -0.34524  -0.33135  -0.29846  -0.27210
 Alpha  occ. eigenvalues --   -0.26653  -0.25913  -0.23816  -0.20310  -0.15974
 Alpha  occ. eigenvalues --   -0.06924
 Alpha virt. eigenvalues --    0.20256   0.23922   0.28241   0.31926   0.32522
 Alpha virt. eigenvalues --    0.33068   0.33390   0.34067   0.34695   0.35259
 Alpha virt. eigenvalues --    0.35705   0.36469   0.36802   0.37731   0.38579
 Alpha virt. eigenvalues --    0.39815   0.40782   0.41002   0.41838   0.42208
     Molecular Orbital Coefficients:
                           1         2         3         4         5
                           O         O         O         O         O
     Eigenvalues --    -1.22788  -1.06967  -1.01831  -0.85692  -0.77098
   1 1   C  1S          0.32814   0.16068   0.38142  -0.21161   0.40708
   2        1PX         0.03163  -0.11836   0.11909  -0.10904  -0.05981
   3        1PY        -0.07677  -0.07232   0.03757  -0.02369   0.02695
   4        1PZ         0.00922  -0.00057   0.00631  -0.02857  -0.01209
   5 2   C  1S          0.31472  -0.16580   0.50405  -0.15858  -0.10476
   6        1PX        -0.02862  -0.10739  -0.04187   0.14137  -0.27883
   7        1PY        -0.07025   0.05288  -0.00724  -0.05095   0.06509
   8        1PZ        -0.00939   0.00776  -0.01060  -0.00968  -0.01223
   9 3   C  1S          0.29670  -0.36752   0.23083   0.25275  -0.37038
  10        1PX        -0.07784   0.03080  -0.07663   0.06461  -0.00765
  11        1PY        -0.02910   0.05949   0.14191  -0.10589  -0.12875
  12        1PZ        -0.01241   0.02494   0.01076  -0.03646  -0.02126
  13 4   C  1S          0.39699   0.45075   0.00535   0.10479   0.03462
  14        1PX         0.03879  -0.10011   0.02428  -0.26792   0.04391
  15        1PY        -0.00956  -0.00181   0.14840   0.02161   0.23939
  16        1PZ         0.01187  -0.01338  -0.02363  -0.09828  -0.06115
  17 5   C  1S          0.32972  -0.41864  -0.20214   0.30240   0.22338
  18        1PX        -0.07768   0.02715   0.08726   0.08284  -0.08025
  19        1PY         0.02325  -0.03729   0.13384   0.07212  -0.21488
  20        1PZ         0.02810  -0.01890  -0.00255  -0.01009  -0.04683
  21 6   C  1S          0.36865   0.15151  -0.33026  -0.37544  -0.34848
  22        1PX         0.02286  -0.11573  -0.05332  -0.05887   0.08865
  23        1PY         0.05213   0.06765   0.05691   0.03148   0.02073
  24        1PZ        -0.05664  -0.00993   0.03863  -0.01380  -0.05497
  25 7   C  1S          0.34253  -0.21932  -0.41216  -0.12108   0.23485
  26        1PX         0.00207  -0.13147   0.00334   0.17172   0.19827
  27        1PY         0.08371  -0.05026  -0.02034   0.02824  -0.00571
  28        1PZ         0.02908   0.02315  -0.02896  -0.07965  -0.09874
  29 8   H  1S          0.09876   0.06829   0.13969  -0.06377   0.20032
  30 9   H  1S          0.09402  -0.05784   0.19389  -0.06783  -0.05569
  31 10  H  1S          0.08521  -0.12650   0.08551   0.11533  -0.18520
  32 11  H  1S          0.09647  -0.14748  -0.07471   0.14449   0.11795
  33 12  H  1S          0.10092  -0.06915  -0.15351  -0.05152   0.11661
  34 13  C  1S          0.21342   0.40296  -0.02436   0.49805  -0.05311
  35        1PX         0.08909   0.11637  -0.00328   0.02475   0.01167
  36        1PY         0.00433   0.01142   0.03349   0.01688   0.07619
  37        1PZ         0.02802   0.03942  -0.00862   0.00258  -0.02070
  38 14  H  1S          0.06945   0.13643  -0.02459   0.19271  -0.06378
  39 15  H  1S          0.06504   0.13452   0.00539   0.20658   0.01033
  40 16  H  1S          0.13714   0.04316  -0.10943  -0.16223  -0.15010
  41 17  H  1S          0.12216   0.07466  -0.13472  -0.13985  -0.18884
                           6         7         8         9        10
                           O         O         O         O         O
     Eigenvalues --    -0.66272  -0.51910  -0.47996  -0.45431  -0.38875
   1 1   C  1S         -0.12869  -0.11927   0.22274  -0.03184  -0.09248
   2        1PX         0.18831  -0.14976  -0.21895   0.14954  -0.24602
   3        1PY         0.17389  -0.24334   0.08736  -0.17772  -0.00770
   4        1PZ        -0.01055  -0.02893  -0.04596   0.01320   0.05019
   5 2   C  1S          0.32291  -0.00981  -0.23858   0.02240   0.02897
   6        1PX         0.03678   0.25977  -0.00785  -0.08264   0.27096
   7        1PY         0.13166  -0.13030  -0.11009  -0.27920   0.17404
   8        1PZ         0.00962   0.00349  -0.02076  -0.00850   0.09839
   9 3   C  1S         -0.15101   0.13895   0.24011  -0.02776  -0.06029
  10        1PX        -0.10944  -0.05339   0.17315  -0.32141   0.01206
  11        1PY         0.21053   0.23131  -0.04996  -0.12902   0.18719
  12        1PZ         0.04398   0.05273   0.01121   0.01811   0.10841
  13 4   C  1S         -0.28141   0.29120  -0.21163  -0.06688   0.01774
  14        1PX        -0.18422   0.01826   0.03396   0.14666  -0.08243
  15        1PY        -0.07823   0.07657   0.27897   0.01703   0.21478
  16        1PZ        -0.07942  -0.08256  -0.07833   0.00277   0.06671
  17 5   C  1S         -0.17571  -0.23890  -0.16761   0.00485   0.02992
  18        1PX        -0.15695  -0.20602   0.00844  -0.30653  -0.09176
  19        1PY        -0.17971  -0.03263   0.20245   0.14443  -0.23905
  20        1PZ        -0.01026   0.02411   0.11534   0.14646   0.06434
  21 6   C  1S         -0.06457  -0.20563   0.03868  -0.01934   0.04884
  22        1PX         0.09699   0.07890   0.22959   0.20861   0.16678
  23        1PY        -0.17774   0.08268  -0.23449   0.16663   0.10483
  24        1PZ        -0.04819  -0.24072   0.03451  -0.00527   0.36310
  25 7   C  1S          0.31982   0.26737   0.12254  -0.00824  -0.02727
  26        1PX        -0.02476  -0.06089  -0.22172   0.03237   0.24213
  27        1PY        -0.11807  -0.09150  -0.10589   0.32359   0.12958
  28        1PZ        -0.02236  -0.09220   0.12814   0.11786   0.13164
  29 8   H  1S         -0.02889  -0.13532   0.24545  -0.17080   0.04571
  30 9   H  1S          0.21930  -0.03464  -0.19291  -0.19785   0.21840
  31 10  H  1S         -0.08006   0.09061   0.21775  -0.25357   0.02814
  32 11  H  1S         -0.10312  -0.22203  -0.17292  -0.26172   0.01546
  33 12  H  1S          0.20954   0.21340   0.10425  -0.24576  -0.16324
  34 13  C  1S          0.33736  -0.13437   0.07488   0.09511   0.00127
  35        1PX        -0.15049   0.24052  -0.19454  -0.18573   0.02561
  36        1PY        -0.03838   0.07371   0.15418  -0.00253   0.30240
  37        1PZ        -0.04975   0.03013  -0.11647  -0.07974  -0.01501
  38 14  H  1S          0.21130  -0.19053   0.01272   0.10513  -0.21207
  39 15  H  1S          0.18959  -0.12011   0.21833   0.13343   0.16729
  40 16  H  1S         -0.06320  -0.20333   0.04812   0.07281   0.33976
  41 17  H  1S          0.01932  -0.19766   0.04216  -0.19724  -0.10268
                          11        12        13        14        15
                           O         O         O         O         O
     Eigenvalues --    -0.36268  -0.34524  -0.33135  -0.29846  -0.27210
   1 1   C  1S         -0.02936   0.05291   0.08932   0.03719   0.02238
   2        1PX        -0.07890  -0.07248  -0.11642  -0.31269  -0.17185
   3        1PY         0.34317   0.06886   0.12954   0.04322  -0.08702
   4        1PZ        -0.07385   0.10003   0.07197  -0.12588  -0.13950
   5 2   C  1S         -0.03069  -0.10457  -0.04337  -0.04585   0.03649
   6        1PX        -0.00187  -0.01125   0.06713   0.31501   0.20760
   7        1PY         0.23767   0.20372  -0.26258  -0.00681  -0.07832
   8        1PZ        -0.01657   0.09617   0.04095  -0.11827  -0.09682
   9 3   C  1S          0.00157   0.03003   0.10098  -0.01554  -0.05399
  10        1PX         0.01391   0.33979  -0.17927  -0.14922  -0.18688
  11        1PY        -0.19633   0.08059   0.07231   0.20892   0.12688
  12        1PZ        -0.01702   0.08993   0.08233  -0.11868  -0.05905
  13 4   C  1S          0.00437   0.01907  -0.05486  -0.03224  -0.01090
  14        1PX        -0.29659   0.21688  -0.18871   0.25187  -0.03223
  15        1PY        -0.13627  -0.13256   0.05461  -0.00258   0.18351
  16        1PZ        -0.13466   0.17898   0.15209  -0.00867  -0.18576
  17 5   C  1S          0.05557  -0.05917  -0.02925   0.05222   0.00737
  18        1PX        -0.21210  -0.08034  -0.21511  -0.17344   0.25795
  19        1PY         0.19096  -0.09642  -0.05626  -0.09370  -0.07974
  20        1PZ         0.17491   0.06319   0.09418  -0.20942  -0.09118
  21 6   C  1S          0.00096  -0.02004  -0.07558   0.06881   0.00134
  22        1PX         0.08024   0.10823  -0.20829  -0.26537   0.37547
  23        1PY        -0.11780   0.33771  -0.07203  -0.08851  -0.13180
  24        1PZ        -0.16562  -0.10721   0.32406  -0.21620   0.00325
  25 7   C  1S          0.04009   0.07544   0.00249  -0.05130  -0.01299
  26        1PX        -0.05516   0.04545   0.30365   0.04147  -0.21515
  27        1PY         0.28582   0.11798  -0.12018   0.25337   0.01239
  28        1PZ         0.15764   0.01685  -0.10187  -0.16308   0.24483
  29 8   H  1S          0.23811   0.10013   0.18278   0.21794   0.03341
  30 9   H  1S          0.16782   0.10830  -0.22412   0.04122   0.00398
  31 10  H  1S         -0.04566   0.30316  -0.05254  -0.07131  -0.16243
  32 11  H  1S         -0.23610  -0.07946  -0.18801   0.02902   0.28953
  33 12  H  1S         -0.23382  -0.05187   0.11518  -0.18887  -0.10801
  34 13  C  1S         -0.02445   0.00928  -0.01484  -0.05776   0.01434
  35        1PX         0.32263  -0.23070   0.04583  -0.23952   0.07899
  36        1PY        -0.03588  -0.33422  -0.25334  -0.00892  -0.32562
  37        1PZ         0.08220   0.07694   0.25307  -0.13728   0.06953
  38 14  H  1S         -0.11764   0.33548   0.19008   0.07636   0.24673
  39 15  H  1S         -0.18523  -0.12914  -0.28014   0.12619  -0.29317
  40 16  H  1S         -0.12598   0.01623   0.12933  -0.24212   0.08283
  41 17  H  1S          0.00934  -0.28546   0.16741   0.24866  -0.12669
                          16        17        18        19        20
                           O         O         O         O         O
     Eigenvalues --    -0.26653  -0.25913  -0.23816  -0.20310  -0.15974
   1 1   C  1S         -0.07533  -0.00426  -0.00434   0.00639   0.01397
   2        1PX        -0.22390  -0.13237   0.00102   0.06294  -0.03731
   3        1PY         0.13233  -0.24083   0.30537  -0.07638  -0.00968
   4        1PZ         0.10022   0.27957   0.23982   0.26597   0.26637
   5 2   C  1S         -0.00074   0.03327   0.01953   0.01246  -0.01548
   6        1PX         0.19278   0.06813   0.02720  -0.09802  -0.03379
   7        1PY         0.14222   0.12669  -0.30131  -0.00776  -0.01437
   8        1PZ         0.03050   0.37227   0.26866   0.00917   0.45095
   9 3   C  1S          0.01031  -0.02501   0.03280  -0.03135   0.00538
  10        1PX        -0.25889  -0.04782  -0.14620   0.09216   0.02069
  11        1PY        -0.25160  -0.19865   0.15108   0.10358  -0.03486
  12        1PZ        -0.14856   0.30740   0.28321  -0.24320   0.20723
  13 4   C  1S          0.02334   0.04888  -0.03925  -0.03764  -0.04983
  14        1PX         0.03378   0.08996  -0.10659  -0.22225   0.00496
  15        1PY        -0.03627   0.23272  -0.24401   0.23009   0.03458
  16        1PZ         0.23267   0.11785   0.16405   0.34729  -0.29982
  17 5   C  1S          0.02031   0.06711  -0.02491  -0.00969   0.00308
  18        1PX         0.07575   0.08997   0.18757  -0.11871  -0.11896
  19        1PY         0.35851   0.02473  -0.19265   0.05936   0.10775
  20        1PZ        -0.09861   0.30304   0.02800  -0.35730  -0.33332
  21 6   C  1S          0.00299  -0.05232   0.05720  -0.00436  -0.00561
  22        1PX         0.03007  -0.09518   0.04457   0.12269   0.06284
  23        1PY         0.24773  -0.25346   0.12186  -0.15669  -0.05902
  24        1PZ         0.02576  -0.13809  -0.24756  -0.04954   0.11389
  25 7   C  1S         -0.00132  -0.00841  -0.00103   0.05851  -0.02415
  26        1PX        -0.18853   0.00692  -0.11302  -0.19692  -0.15487
  27        1PY        -0.20075  -0.05998   0.02174   0.24226   0.17522
  28        1PZ        -0.19230   0.19644   0.12069  -0.12331  -0.40230
  29 8   H  1S          0.16254  -0.14714   0.24279  -0.12803   0.00014
  30 9   H  1S          0.19768   0.20838  -0.26267  -0.03668   0.01458
  31 10  H  1S         -0.31819  -0.12180  -0.04848   0.10641   0.02722
  32 11  H  1S         -0.03330  -0.02347   0.22876   0.04013   0.02297
  33 12  H  1S          0.27590  -0.03227  -0.07031  -0.13792   0.00128
  34 13  C  1S         -0.01314  -0.02549   0.01190   0.03034   0.01894
  35        1PX        -0.12658  -0.13201   0.02149  -0.07367   0.17878
  36        1PY         0.05315  -0.03455   0.14857   0.15255  -0.16142
  37        1PZ         0.09893   0.08596   0.04250   0.46382  -0.34683
  38 14  H  1S          0.01120   0.10526  -0.14434  -0.00492   0.02292
  39 15  H  1S          0.05338  -0.02633   0.10706  -0.05106  -0.05770
  40 16  H  1S          0.10421  -0.24556  -0.12465  -0.06139   0.15902
  41 17  H  1S         -0.20467   0.21870  -0.13226   0.03752   0.02228
                          21        22        23        24        25
                           O         V         V         V         V
     Eigenvalues --    -0.06924   0.20256   0.23922   0.28241   0.31926
   1 1   C  1S          0.00133  -0.00938  -0.00647   0.00695  -0.05868
   2        1PX         0.04723   0.02449  -0.01341  -0.00516   0.00850
   3        1PY        -0.02580  -0.00538   0.00859  -0.02610   0.16662
   4        1PZ        -0.57091  -0.22613   0.24988  -0.44066   0.03560
   5 2   C  1S          0.00020  -0.01595   0.02420   0.06545   0.04189
   6        1PX        -0.00503  -0.02489   0.04177  -0.01400  -0.02672
   7        1PY         0.00832  -0.03971  -0.01350  -0.07604   0.14929
   8        1PZ        -0.00090   0.51425   0.02393   0.50592  -0.01248
   9 3   C  1S          0.00697  -0.00366  -0.02548  -0.06918  -0.03021
  10        1PX         0.00909   0.00042   0.01862   0.03559  -0.04303
  11        1PY        -0.10933   0.01684   0.07436   0.08571   0.09022
  12        1PZ         0.57138  -0.19257  -0.29648  -0.39754   0.03523
  13 4   C  1S         -0.03341   0.03191  -0.04861  -0.06432  -0.06443
  14        1PX        -0.02552   0.14784   0.11586  -0.17617  -0.00676
  15        1PY         0.05073  -0.15774  -0.04777   0.15183   0.25317
  16        1PZ        -0.02786  -0.34769  -0.45931   0.29913  -0.13499
  17 5   C  1S         -0.00218   0.00857   0.02792   0.02977  -0.10419
  18        1PX         0.01589  -0.10036   0.18726   0.12912  -0.14422
  19        1PY        -0.01399   0.11087  -0.15907  -0.05076   0.18944
  20        1PZ         0.00857  -0.32440   0.47187   0.26382   0.05673
  21 6   C  1S          0.02449   0.01677   0.00297   0.02617   0.00868
  22        1PX        -0.00704   0.01029  -0.01126  -0.09506   0.03234
  23        1PY         0.03141   0.00101   0.01965   0.10088   0.46304
  24        1PZ        -0.00490  -0.01218  -0.07608   0.01072   0.03898
  25 7   C  1S         -0.01804  -0.02799  -0.04775   0.05954  -0.07625
  26        1PX        -0.16737   0.21872  -0.08514  -0.12680   0.01552
  27        1PY         0.14261  -0.18580   0.14526   0.12323   0.21263
  28        1PZ        -0.32743   0.31188  -0.35037  -0.10343   0.18664
  29 8   H  1S         -0.01325   0.05559   0.02874  -0.02495  -0.09181
  30 9   H  1S          0.03078   0.01459  -0.03601  -0.03280  -0.16036
  31 10  H  1S         -0.00575   0.02252  -0.02528   0.01505   0.03548
  32 11  H  1S          0.06147  -0.05258  -0.05105  -0.04013   0.28257
  33 12  H  1S          0.01285  -0.00054   0.03829   0.01453   0.32680
  34 13  C  1S         -0.00368  -0.01008   0.01891  -0.00676   0.02554
  35        1PX        -0.12633  -0.13483  -0.09338   0.06282   0.02555
  36        1PY         0.12460   0.12777   0.14043  -0.06813   0.20616
  37        1PZ         0.35806   0.35383   0.32272  -0.22330  -0.04674
  38 14  H  1S          0.01533   0.00141   0.01688   0.01194   0.15946
  39 15  H  1S         -0.01857   0.00635  -0.03981  -0.01915  -0.18654
  40 16  H  1S          0.06250  -0.00672   0.15732  -0.04005  -0.18254
  41 17  H  1S         -0.00473  -0.01159   0.02830  -0.00924   0.32921
                          26        27        28        29        30
                           V         V         V         V         V
     Eigenvalues --     0.32522   0.33068   0.33390   0.34067   0.34695
   1 1   C  1S          0.02328  -0.11203   0.02428   0.09064  -0.28852
   2        1PX         0.01641   0.13082  -0.00839  -0.05584  -0.00613
   3        1PY        -0.13657   0.00524  -0.17623  -0.09309   0.02306
   4        1PZ        -0.00012  -0.04362   0.01215   0.01409   0.00320
   5 2   C  1S         -0.15726   0.10265  -0.18031   0.05198   0.09018
   6        1PX        -0.06615   0.10693  -0.06957   0.07240  -0.14204
   7        1PY        -0.13808   0.10016  -0.38927   0.06620  -0.19416
   8        1PZ         0.02314   0.03843  -0.04905  -0.00937  -0.03010
   9 3   C  1S         -0.01788  -0.04141  -0.02292  -0.18884  -0.20324
  10        1PX        -0.09876   0.11871  -0.04477  -0.03033  -0.18614
  11        1PY        -0.00989   0.06067  -0.11911   0.14826  -0.13987
  12        1PZ        -0.08047   0.00799  -0.02008   0.05217  -0.02318
  13 4   C  1S          0.05388   0.22972  -0.23724  -0.06270   0.18328
  14        1PX         0.05848   0.18460  -0.03914  -0.00572  -0.01732
  15        1PY        -0.25195  -0.16756  -0.00509  -0.07988   0.05645
  16        1PZ         0.01260   0.13848   0.03254  -0.00648   0.00681
  17 5   C  1S         -0.24412   0.08858  -0.00523   0.24743   0.06949
  18        1PX        -0.24367   0.17589   0.09712  -0.08288  -0.06826
  19        1PY         0.12336   0.02642  -0.15174   0.06213  -0.07418
  20        1PZ         0.21281  -0.01278  -0.07700   0.04363   0.02355
  21 6   C  1S         -0.23521  -0.21023   0.12226   0.25533   0.02302
  22        1PX        -0.07828   0.49651   0.26734  -0.04876   0.04757
  23        1PY        -0.07664  -0.03370   0.22516  -0.24033  -0.13418
  24        1PZ         0.30160   0.21625  -0.10482   0.13019  -0.00648
  25 7   C  1S          0.13047  -0.05078  -0.16536  -0.34947  -0.14324
  26        1PX        -0.17363   0.04356   0.14564  -0.04261  -0.04821
  27        1PY         0.14452   0.10725   0.02564   0.22342  -0.02063
  28        1PZ         0.06850  -0.09161  -0.05356   0.09977  -0.01229
  29 8   H  1S          0.11302   0.16795   0.12654  -0.02602   0.20869
  30 9   H  1S          0.25787  -0.19651   0.48027  -0.10880   0.12414
  31 10  H  1S          0.11483  -0.09599   0.10235   0.13121   0.36896
  32 11  H  1S          0.48799  -0.18113  -0.14702  -0.08187  -0.02188
  33 12  H  1S          0.02978   0.09616   0.14023   0.47534   0.08218
  34 13  C  1S         -0.01508  -0.08015   0.21200   0.09253  -0.34171
  35        1PX        -0.02206   0.06878   0.04768  -0.03913   0.12433
  36        1PY        -0.17775  -0.14355  -0.02267  -0.13605   0.23610
  37        1PZ         0.10470   0.07108  -0.00056   0.05188  -0.05319
  38 14  H  1S         -0.15830  -0.03377  -0.16735  -0.18398   0.48784
  39 15  H  1S          0.17852   0.23118  -0.13690   0.02143   0.13648
  40 16  H  1S         -0.03420  -0.16457  -0.14423  -0.20956   0.00539
  41 17  H  1S          0.04322   0.37692   0.22028  -0.35195  -0.08075
                          31        32        33        34        35
                           V         V         V         V         V
     Eigenvalues --     0.35259   0.35705   0.36469   0.36802   0.37731
   1 1   C  1S          0.03460   0.24347  -0.09100   0.10942   0.15100
   2        1PX        -0.08540   0.02207   0.03198  -0.28078   0.02846
   3        1PY         0.00922   0.13568   0.13246   0.19935   0.33636
   4        1PZ        -0.04614  -0.02224  -0.07322  -0.00568  -0.02266
   5 2   C  1S          0.03109  -0.26703  -0.03231   0.07246  -0.27670
   6        1PX        -0.01712  -0.03188  -0.10509  -0.07509  -0.07425
   7        1PY         0.04614   0.00352   0.15900   0.09987  -0.05632
   8        1PZ         0.01106   0.04015   0.07833   0.00353   0.01707
   9 3   C  1S         -0.12053   0.28914   0.16384  -0.08328   0.05315
  10        1PX        -0.11171   0.06245  -0.14076  -0.33371  -0.19438
  11        1PY         0.04292   0.12723  -0.08434  -0.13486   0.21033
  12        1PZ         0.01068  -0.02996  -0.09802  -0.02632   0.02230
  13 4   C  1S          0.00298  -0.06373   0.18133  -0.05954   0.26206
  14        1PX        -0.08968  -0.07152   0.12623  -0.03469   0.03850
  15        1PY         0.00120  -0.02197   0.00207   0.03989  -0.14995
  16        1PZ         0.08578   0.01417   0.13584  -0.10147   0.02937
  17 5   C  1S          0.06212  -0.10643  -0.19840   0.02504   0.22016
  18        1PX        -0.09810  -0.03334  -0.22262  -0.00292   0.06712
  19        1PY         0.07503  -0.06129  -0.06733  -0.08934  -0.10164
  20        1PZ         0.01803   0.01834   0.14203   0.01358  -0.02932
  21 6   C  1S         -0.26639   0.13701   0.16356   0.13245  -0.23414
  22        1PX         0.05429   0.10593   0.33781   0.11659   0.01991
  23        1PY        -0.03457  -0.06281  -0.28468   0.19720  -0.07786
  24        1PZ        -0.52436  -0.09783  -0.10179   0.11665   0.15726
  25 7   C  1S         -0.19315  -0.13901  -0.20512   0.03485  -0.02210
  26        1PX         0.06853   0.17565   0.25745  -0.05161  -0.26513
  27        1PY         0.02491   0.09323  -0.14505  -0.22496   0.04253
  28        1PZ         0.08332  -0.05010  -0.26296  -0.11741   0.09356
  29 8   H  1S         -0.07965  -0.29129  -0.01402  -0.35129  -0.31671
  30 9   H  1S         -0.05293   0.17731  -0.07478  -0.09692   0.21085
  31 10  H  1S          0.17199  -0.30733   0.02081   0.35247   0.04395
  32 11  H  1S          0.05012   0.07440   0.27190  -0.03789  -0.19859
  33 12  H  1S          0.18495   0.15644  -0.03332  -0.21410   0.05394
  34 13  C  1S         -0.03039  -0.27178   0.16622  -0.05320   0.01877
  35        1PX        -0.04593   0.26634  -0.15011   0.03467  -0.23907
  36        1PY        -0.20890  -0.03410   0.09333  -0.26127   0.18376
  37        1PZ         0.01456   0.09557  -0.12364   0.13896  -0.13417
  38 14  H  1S         -0.15412   0.27266  -0.09584  -0.13319   0.01904
  39 15  H  1S          0.14117   0.36812  -0.27426   0.25237  -0.24088
  40 16  H  1S          0.55596  -0.03157  -0.05874  -0.22763   0.04869
  41 17  H  1S          0.21734  -0.06944  -0.07692   0.06978   0.08806
                          36        37        38        39        40
                           V         V         V         V         V
     Eigenvalues --     0.38579   0.39815   0.40782   0.41002   0.41838
   1 1   C  1S          0.20652  -0.25204  -0.05591  -0.16255  -0.03381
   2        1PX         0.24450   0.27380   0.09164   0.20385  -0.05174
   3        1PY        -0.12361   0.05458  -0.06083   0.27888   0.39187
   4        1PZ        -0.00806   0.00818   0.03214   0.00127  -0.01338
   5 2   C  1S         -0.20353  -0.15006  -0.09306  -0.15160   0.20732
   6        1PX         0.25261  -0.14157  -0.09546  -0.05051   0.20896
   7        1PY         0.14904   0.13848  -0.09373  -0.05990  -0.42816
   8        1PZ         0.03963   0.02865  -0.02667  -0.00633  -0.02367
   9 3   C  1S         -0.14210   0.26911  -0.13985  -0.10362  -0.21508
  10        1PX        -0.14400  -0.07758   0.10984  -0.19528   0.44814
  11        1PY         0.18078   0.02350   0.43775   0.17157  -0.13247
  12        1PZ         0.02718  -0.03648   0.08890   0.05479  -0.01997
  13 4   C  1S         -0.27172   0.06234   0.13389   0.07650   0.06359
  14        1PX         0.26420   0.12158  -0.32733   0.29173   0.25588
  15        1PY        -0.08615   0.37536   0.08971   0.33166   0.14948
  16        1PZ         0.14952  -0.05308  -0.12732   0.02101   0.02985
  17 5   C  1S          0.20978   0.13872   0.23813  -0.10244   0.08577
  18        1PX        -0.15617  -0.22508  -0.11064   0.34990  -0.24999
  19        1PY         0.13298  -0.35186   0.36159   0.30570   0.03015
  20        1PZ         0.11092  -0.02894   0.15878  -0.01189   0.06275
  21 6   C  1S         -0.03048   0.01368   0.15158   0.06080  -0.00901
  22        1PX         0.04029  -0.11526   0.12282  -0.12990   0.00873
  23        1PY         0.01454   0.10904   0.10603  -0.11195  -0.03769
  24        1PZ        -0.03938  -0.00969  -0.04256  -0.03498  -0.00296
  25 7   C  1S         -0.05054  -0.16992  -0.03079   0.21524  -0.09820
  26        1PX        -0.12018  -0.31841   0.04478   0.28658  -0.10181
  27        1PY        -0.27242  -0.12419  -0.28394   0.18534  -0.13172
  28        1PZ        -0.06578   0.10018  -0.14154  -0.03793   0.00120
  29 8   H  1S          0.04325   0.23087   0.10227   0.01466  -0.20884
  30 9   H  1S         -0.03402   0.02021   0.11628   0.11718   0.09413
  31 10  H  1S          0.14180  -0.11677  -0.09248   0.13648  -0.11122
  32 11  H  1S          0.03320  -0.06062   0.06010  -0.03781   0.09062
  33 12  H  1S         -0.16202   0.03505  -0.17463  -0.01027  -0.02189
  34 13  C  1S          0.17095   0.03798  -0.17639   0.11520   0.09714
  35        1PX         0.40274   0.03822  -0.26675   0.12048   0.09376
  36        1PY         0.19075  -0.23677  -0.10611  -0.14145  -0.05194
  37        1PZ         0.05328   0.08745  -0.05371   0.07968   0.05327
  38 14  H  1S          0.14723  -0.14641  -0.03916  -0.10229  -0.05266
  39 15  H  1S         -0.04484   0.13107   0.04792   0.06143   0.01486
  40 16  H  1S          0.03159   0.00305  -0.09527   0.02784   0.01095
  41 17  H  1S          0.03726  -0.00203   0.02000  -0.11838  -0.00802
                          41
                           V
     Eigenvalues --     0.42208
   1 1   C  1S          0.22790
   2        1PX         0.49166
   3        1PY         0.06061
   4        1PZ         0.05199
   5 2   C  1S         -0.14961
   6        1PX         0.57158
   7        1PY        -0.00015
   8        1PZ         0.03299
   9 3   C  1S         -0.10711
  10        1PX        -0.04409
  11        1PY        -0.30975
  12        1PZ        -0.05188
  13 4   C  1S          0.15346
  14        1PX        -0.25471
  15        1PY         0.10307
  16        1PZ        -0.08937
  17 5   C  1S         -0.11583
  18        1PX         0.00577
  19        1PY        -0.08706
  20        1PZ        -0.03605
  21 6   C  1S          0.05899
  22        1PX         0.00205
  23        1PY         0.03475
  24        1PZ        -0.01772
  25 7   C  1S         -0.00035
  26        1PX         0.04859
  27        1PY         0.03940
  28        1PZ        -0.00063
  29 8   H  1S          0.01192
  30 9   H  1S         -0.02554
  31 10  H  1S          0.15225
  32 11  H  1S          0.02379
  33 12  H  1S          0.02273
  34 13  C  1S         -0.13865
  35        1PX        -0.21437
  36        1PY        -0.06468
  37        1PZ        -0.05635
  38 14  H  1S         -0.02015
  39 15  H  1S          0.02507
  40 16  H  1S         -0.02627
  41 17  H  1S         -0.01090
     Density Matrix:
                           1         2         3         4         5
   1 1   C  1S          1.19780
   2        1PX        -0.02332   0.92190
   3        1PY         0.03970  -0.02370   0.93326
   4        1PZ        -0.00613  -0.03771   0.01389   1.35228
   5 2   C  1S          0.30635   0.48833   0.01946   0.04784   1.19685
   6        1PX        -0.48029  -0.59906  -0.03839  -0.09649   0.01018
   7        1PY        -0.09002  -0.11936   0.12486  -0.05017   0.02836
   8        1PZ        -0.03989  -0.09854   0.00072   0.68532   0.01046
   9 3   C  1S         -0.01452  -0.03380   0.00417  -0.00904   0.30020
  10        1PX         0.02917   0.04029   0.01030   0.00700  -0.38448
  11        1PY        -0.01722  -0.04337   0.00241   0.05236   0.30161
  12        1PZ         0.00135   0.01290  -0.00553  -0.30590   0.04105
  13 4   C  1S          0.28648  -0.23099  -0.42429   0.01979  -0.01820
  14        1PX         0.24129  -0.07724  -0.35199  -0.06420  -0.01604
  15        1PY         0.39883  -0.32148  -0.43929   0.02789  -0.02909
  16        1PZ        -0.02645  -0.01828   0.05897   0.40709   0.00047
  17 5   C  1S         -0.01075  -0.01247   0.00115   0.00657  -0.01661
  18        1PX        -0.00073   0.00644   0.00246  -0.03923  -0.00265
  19        1PY        -0.01168  -0.02001   0.00184   0.05861  -0.02750
  20        1PZ        -0.00463   0.01231   0.00453  -0.13502  -0.01420
  21 6   C  1S         -0.02218   0.01455   0.03065  -0.02079  -0.00991
  22        1PX         0.01439  -0.00997  -0.03533   0.01849   0.00837
  23        1PY        -0.02801   0.03185   0.03007  -0.01588  -0.01074
  24        1PZ         0.01088  -0.01420  -0.02254   0.00196   0.00129
  25 7   C  1S         -0.00160   0.00038   0.00432   0.02564  -0.01019
  26        1PX         0.00348   0.00018  -0.00388   0.06147   0.00292
  27        1PY        -0.00030   0.00898   0.00151  -0.06818  -0.01713
  28        1PZ        -0.00355  -0.01563   0.00317   0.17875   0.02230
  29 8   H  1S          0.55484  -0.43125   0.67797  -0.05090  -0.05223
  30 9   H  1S         -0.05197  -0.06608   0.00525  -0.02234   0.53010
  31 10  H  1S          0.05215   0.07174  -0.00074   0.01889  -0.05219
  32 11  H  1S          0.00162   0.00074  -0.00193  -0.02739   0.04684
  33 12  H  1S         -0.00135   0.00109  -0.00052  -0.01451   0.00041
  34 13  C  1S         -0.03166   0.02426   0.02707   0.00553   0.02458
  35        1PX        -0.03156   0.01047   0.05554   0.06707   0.02498
  36        1PY        -0.01282  -0.00159  -0.00808  -0.07911   0.01238
  37        1PZ        -0.00927   0.02910   0.00109  -0.19666   0.02205
  38 14  H  1S          0.05881  -0.04223  -0.06849  -0.01403  -0.01542
  39 15  H  1S         -0.01894   0.01106   0.02077   0.01412   0.00293
  40 16  H  1S         -0.00521   0.01113   0.00508  -0.05850   0.00133
  41 17  H  1S          0.04253  -0.02433  -0.05345  -0.00194   0.00418
                           6         7         8         9        10
   6        1PX         0.92254
   7        1PY         0.00733   0.93962
   8        1PZ        -0.00507   0.00145   0.92097
   9 3   C  1S          0.33858  -0.34629  -0.00327   1.19747
  10        1PX        -0.28927   0.40936   0.01275   0.04298   0.94009
  11        1PY         0.33831  -0.19084  -0.10705   0.01255   0.00846
  12        1PZ         0.01995  -0.10336   0.64090   0.02689   0.00448
  13 4   C  1S          0.03689   0.01072  -0.01351  -0.01101   0.01034
  14        1PX         0.02267  -0.00707  -0.02727  -0.00885   0.01018
  15        1PY         0.04625   0.00704   0.04398  -0.00903   0.00891
  16        1PZ         0.00013  -0.00296   0.03316   0.00246  -0.00515
  17 5   C  1S         -0.01962   0.02480  -0.00098   0.28408  -0.06482
  18        1PX        -0.00392   0.02156   0.01067   0.04219   0.10922
  19        1PY        -0.03698   0.02316  -0.01839   0.44759  -0.09830
  20        1PZ        -0.01540   0.01895   0.01466   0.15157  -0.01371
  21 6   C  1S          0.01199   0.00236  -0.01596  -0.01237   0.00109
  22        1PX        -0.00682  -0.01098   0.02506  -0.01664   0.00322
  23        1PY         0.01257   0.00396  -0.03242   0.00795  -0.00732
  24        1PZ        -0.01122   0.00115  -0.00132   0.00633  -0.00090
  25 7   C  1S         -0.00670   0.00904  -0.00632  -0.01638   0.00852
  26        1PX         0.01133   0.00537  -0.09769  -0.02504   0.00317
  27        1PY        -0.01919   0.00991   0.07719  -0.01501  -0.00643
  28        1PZ         0.02674  -0.00648  -0.16240  -0.00747  -0.01122
  29 8   H  1S          0.06859   0.02299  -0.01028   0.05302  -0.06052
  30 9   H  1S          0.24558   0.78167   0.07911  -0.04970   0.05928
  31 10  H  1S         -0.04469   0.05744  -0.00897   0.56022   0.74730
  32 11  H  1S          0.04118  -0.05228   0.04190  -0.04569   0.01126
  33 12  H  1S         -0.00221  -0.00011  -0.00189   0.05531  -0.01407
  34 13  C  1S         -0.03512  -0.00994   0.01202  -0.00063   0.00072
  35        1PX        -0.03777  -0.01033   0.07021   0.00128  -0.00215
  36        1PY        -0.00944   0.00384  -0.05424  -0.00139   0.00187
  37        1PZ        -0.02281   0.00293  -0.15705  -0.00053   0.00287
  38 14  H  1S          0.02192   0.00483  -0.00195  -0.00126   0.00126
  39 15  H  1S         -0.00302  -0.00103  -0.00560   0.00019  -0.00005
  40 16  H  1S         -0.00916  -0.00367   0.02606   0.00695  -0.00215
  41 17  H  1S         -0.00314  -0.00367   0.01371   0.00406  -0.00230
                          11        12        13        14        15
  11        1PY         0.92767
  12        1PZ        -0.08541   1.35532
  13 4   C  1S         -0.00065  -0.03018   1.20118
  14        1PX        -0.00763   0.01410   0.01263   0.91062
  15        1PY        -0.00139  -0.00903  -0.01066   0.01294   0.92130
  16        1PZ         0.02559  -0.13755   0.01271   0.01423  -0.02400
  17 5   C  1S         -0.46380  -0.10872   0.00012  -0.00026   0.00288
  18        1PX        -0.08661   0.06988   0.01964   0.01768  -0.02492
  19        1PY        -0.56415  -0.25908  -0.01288  -0.01198   0.02943
  20        1PZ        -0.27930   0.38281   0.04505   0.03745  -0.06040
  21 6   C  1S          0.01443   0.01144   0.22033   0.19105  -0.32363
  22        1PX         0.02135  -0.02405  -0.21057  -0.07995   0.28553
  23        1PY        -0.01024   0.03343   0.36102   0.28247  -0.39435
  24        1PZ        -0.01257  -0.02166  -0.20169  -0.17468   0.28191
  25 7   C  1S          0.03367  -0.01471  -0.01034  -0.00540   0.01135
  26        1PX         0.06382  -0.07519   0.02159  -0.00680  -0.00956
  27        1PY        -0.00097   0.09351  -0.01284   0.01806  -0.00186
  28        1PZ         0.03849  -0.21016   0.00406  -0.02487   0.02232
  29 8   H  1S          0.04086   0.02279  -0.04428  -0.05155  -0.05231
  30 9   H  1S         -0.03981   0.00403   0.05569   0.04478   0.06659
  31 10  H  1S          0.29337   0.02589  -0.00177  -0.00024  -0.00073
  32 11  H  1S          0.06591   0.03758  -0.00511   0.00165  -0.00025
  33 12  H  1S         -0.08289   0.00436   0.02524   0.01759  -0.02548
  34 13  C  1S         -0.00030  -0.00295   0.31786  -0.46029  -0.03815
  35        1PX         0.00960  -0.05541   0.49287  -0.46688  -0.12858
  36        1PY        -0.01148   0.05840   0.03937  -0.14762   0.21063
  37        1PZ        -0.02714   0.15626   0.13041  -0.41805   0.17416
  38 14  H  1S         -0.00092   0.00724  -0.04321   0.06809  -0.00043
  39 15  H  1S          0.00117  -0.01036  -0.03920   0.06190   0.01203
  40 16  H  1S         -0.01735   0.05583  -0.02429  -0.02433   0.04377
  41 17  H  1S         -0.00361   0.00619  -0.02559  -0.02768   0.04351
                          16        17        18        19        20
  16        1PZ         0.90418
  17 5   C  1S         -0.00059   1.19803
  18        1PX         0.00662   0.03882   0.93812
  19        1PY        -0.00650  -0.00995  -0.01087   0.93845
  20        1PZ         0.02559  -0.00961   0.00889  -0.00213   0.95966
  21 6   C  1S          0.15597  -0.01798   0.02339   0.01114  -0.00948
  22        1PX        -0.16111  -0.02884   0.02309   0.03336  -0.00946
  23        1PY         0.25577   0.00496  -0.01696  -0.00867   0.01856
  24        1PZ         0.00007   0.01382  -0.03154  -0.01125  -0.01880
  25 7   C  1S         -0.01341   0.31240  -0.42316  -0.25511   0.05574
  26        1PX         0.07155   0.40384  -0.27677  -0.41378   0.31175
  27        1PY        -0.05649   0.28159  -0.46059   0.00350  -0.20744
  28        1PZ         0.06079  -0.04086   0.26830  -0.14703   0.66498
  29 8   H  1S          0.01905   0.00048   0.00039  -0.00517   0.00786
  30 9   H  1S         -0.01390   0.05451   0.00788   0.06975   0.03435
  31 10  H  1S         -0.00101  -0.05082  -0.00062  -0.07072  -0.02639
  32 11  H  1S         -0.01773   0.54072   0.64414  -0.34631  -0.35652
  33 12  H  1S          0.02265  -0.05015   0.06543   0.03846  -0.01160
  34 13  C  1S         -0.13563  -0.00154  -0.00353   0.00432  -0.01145
  35        1PX        -0.40510   0.00150  -0.01145   0.00945  -0.02656
  36        1PY         0.19092  -0.00107   0.00344  -0.00404   0.00848
  37        1PZ         0.67013  -0.00560   0.01045  -0.00994   0.02416
  38 14  H  1S          0.01852   0.00007  -0.00094   0.00319  -0.00405
  39 15  H  1S          0.01351   0.00047   0.00547  -0.00701   0.01558
  40 16  H  1S          0.00007  -0.01055  -0.01793   0.03124  -0.07718
  41 17  H  1S         -0.01912   0.04521  -0.05280  -0.02203  -0.00452
                          21        22        23        24        25
  21 6   C  1S          1.19711
  22        1PX        -0.01465   0.94340
  23        1PY        -0.01202   0.01591   0.94384
  24        1PZ         0.03240   0.01530   0.01104   0.97699
  25 7   C  1S          0.23065   0.36644  -0.13377  -0.27368   1.21845
  26        1PX        -0.33638  -0.37409   0.16044   0.38420  -0.01224
  27        1PY         0.14688   0.18260   0.04282  -0.16877  -0.04613
  28        1PZ         0.21013   0.35135  -0.15340  -0.09307   0.00404
  29 8   H  1S          0.04247  -0.03205   0.05655  -0.03640   0.00064
  30 9   H  1S         -0.00002  -0.00003   0.00167   0.00386   0.00080
  31 10  H  1S          0.00220   0.00538  -0.00231   0.00168   0.04939
  32 11  H  1S          0.05473   0.07192  -0.02005  -0.05696  -0.05179
  33 12  H  1S         -0.04420  -0.06606   0.02622   0.05095   0.55938
  34 13  C  1S         -0.03027   0.03045  -0.02420   0.01867   0.01277
  35        1PX        -0.03030   0.02191  -0.05868   0.03615   0.00214
  36        1PY         0.01200   0.00635  -0.00812  -0.00178   0.01434
  37        1PZ        -0.00862   0.00050  -0.00985  -0.01827   0.04459
  38 14  H  1S         -0.02235   0.01865  -0.02444   0.01369   0.00175
  39 15  H  1S          0.05508  -0.05154   0.06817  -0.04164  -0.00833
  40 16  H  1S          0.49911   0.28796   0.24618   0.75329  -0.02041
  41 17  H  1S          0.49793  -0.54977  -0.64465   0.07683  -0.03010
                          26        27        28        29        30
  26        1PX         0.96744
  27        1PY        -0.03708   0.98863
  28        1PZ         0.08835  -0.08747   1.14280
  29 8   H  1S         -0.00479   0.00327  -0.00276   0.92221
  30 9   H  1S         -0.01235   0.01112  -0.01831  -0.03738   0.95333
  31 10  H  1S          0.03944   0.04913  -0.02864  -0.02968  -0.03571
  32 11  H  1S         -0.06608  -0.03842  -0.01591   0.00903  -0.02843
  33 12  H  1S         -0.04856  -0.73077  -0.32759   0.00208   0.01003
  34 13  C  1S         -0.01313   0.00790   0.01436  -0.01125  -0.01443
  35        1PX         0.02207  -0.01815   0.04046   0.00345  -0.02042
  36        1PY        -0.04271   0.02903  -0.02722  -0.01848  -0.00051
  37        1PZ        -0.11013   0.07048  -0.05636  -0.04567  -0.00407
  38 14  H  1S         -0.00501   0.00353  -0.00211  -0.00051   0.01777
  39 15  H  1S          0.01274  -0.00684  -0.00436   0.01853  -0.00460
  40 16  H  1S          0.02673  -0.00117  -0.03530   0.00171   0.00577
  41 17  H  1S          0.03882  -0.02347  -0.02450  -0.02626   0.00426
                          31        32        33        34        35
  31 10  H  1S          0.92808
  32 11  H  1S         -0.02606   0.94396
  33 12  H  1S         -0.03117  -0.03163   0.92282
  34 13  C  1S          0.00483   0.00278  -0.00631   1.22523
  35        1PX         0.00563  -0.00706  -0.00477  -0.05287   0.97203
  36        1PY         0.00093   0.01030  -0.00673  -0.00330  -0.03968
  37        1PZ         0.00112   0.02959  -0.01826  -0.01125  -0.09376
  38 14  H  1S         -0.00249   0.00140  -0.00124   0.55061  -0.40044
  39 15  H  1S          0.00007  -0.00323   0.00821   0.54863  -0.39021
  40 16  H  1S          0.00417   0.00667   0.05749   0.02854   0.05186
  41 17  H  1S          0.00349  -0.02862  -0.03256  -0.01453  -0.01462
                          36        37        38        39        40
  36        1PY         1.00742
  37        1PZ         0.09270   1.21880
  38 14  H  1S         -0.69853   0.11324   0.92885
  39 15  H  1S          0.61606  -0.36150  -0.10060   0.92320
  40 16  H  1S         -0.01912  -0.05007   0.00606  -0.01956   0.93577
  41 17  H  1S         -0.00820  -0.00869   0.02631   0.00466  -0.06992
                          41
  41 17  H  1S          0.96231
    Full Mulliken population analysis:
                           1         2         3         4         5
   1 1   C  1S          1.19780
   2        1PX         0.00000   0.92190
   3        1PY         0.00000   0.00000   0.93326
   4        1PZ         0.00000   0.00000   0.00000   1.35228
   5 2   C  1S          0.00000   0.00000   0.00000   0.00000   1.19685
   6        1PX         0.00000   0.00000   0.00000   0.00000   0.00000
   7        1PY         0.00000   0.00000   0.00000   0.00000   0.00000
   8        1PZ         0.00000   0.00000   0.00000   0.00000   0.00000
   9 3   C  1S          0.00000   0.00000   0.00000   0.00000   0.00000
  10        1PX         0.00000   0.00000   0.00000   0.00000   0.00000
  11        1PY         0.00000   0.00000   0.00000   0.00000   0.00000
  12        1PZ         0.00000   0.00000   0.00000   0.00000   0.00000
  13 4   C  1S          0.00000   0.00000   0.00000   0.00000   0.00000
  14        1PX         0.00000   0.00000   0.00000   0.00000   0.00000
  15        1PY         0.00000   0.00000   0.00000   0.00000   0.00000
  16        1PZ         0.00000   0.00000   0.00000   0.00000   0.00000
  17 5   C  1S          0.00000   0.00000   0.00000   0.00000   0.00000
  18        1PX         0.00000   0.00000   0.00000   0.00000   0.00000
  19        1PY         0.00000   0.00000   0.00000   0.00000   0.00000
  20        1PZ         0.00000   0.00000   0.00000   0.00000   0.00000
  21 6   C  1S          0.00000   0.00000   0.00000   0.00000   0.00000
  22        1PX         0.00000   0.00000   0.00000   0.00000   0.00000
  23        1PY         0.00000   0.00000   0.00000   0.00000   0.00000
  24        1PZ         0.00000   0.00000   0.00000   0.00000   0.00000
  25 7   C  1S          0.00000   0.00000   0.00000   0.00000   0.00000
  26        1PX         0.00000   0.00000   0.00000   0.00000   0.00000
  27        1PY         0.00000   0.00000   0.00000   0.00000   0.00000
  28        1PZ         0.00000   0.00000   0.00000   0.00000   0.00000
  29 8   H  1S          0.00000   0.00000   0.00000   0.00000   0.00000
  30 9   H  1S          0.00000   0.00000   0.00000   0.00000   0.00000
  31 10  H  1S          0.00000   0.00000   0.00000   0.00000   0.00000
  32 11  H  1S          0.00000   0.00000   0.00000   0.00000   0.00000
  33 12  H  1S          0.00000   0.00000   0.00000   0.00000   0.00000
  34 13  C  1S          0.00000   0.00000   0.00000   0.00000   0.00000
  35        1PX         0.00000   0.00000   0.00000   0.00000   0.00000
  36        1PY         0.00000   0.00000   0.00000   0.00000   0.00000
  37        1PZ         0.00000   0.00000   0.00000   0.00000   0.00000
  38 14  H  1S          0.00000   0.00000   0.00000   0.00000   0.00000
  39 15  H  1S          0.00000   0.00000   0.00000   0.00000   0.00000
  40 16  H  1S          0.00000   0.00000   0.00000   0.00000   0.00000
  41 17  H  1S          0.00000   0.00000   0.00000   0.00000   0.00000
                           6         7         8         9        10
   6        1PX         0.92254
   7        1PY         0.00000   0.93962
   8        1PZ         0.00000   0.00000   0.92097
   9 3   C  1S          0.00000   0.00000   0.00000   1.19747
  10        1PX         0.00000   0.00000   0.00000   0.00000   0.94009
  11        1PY         0.00000   0.00000   0.00000   0.00000   0.00000
  12        1PZ         0.00000   0.00000   0.00000   0.00000   0.00000
  13 4   C  1S          0.00000   0.00000   0.00000   0.00000   0.00000
  14        1PX         0.00000   0.00000   0.00000   0.00000   0.00000
  15        1PY         0.00000   0.00000   0.00000   0.00000   0.00000
  16        1PZ         0.00000   0.00000   0.00000   0.00000   0.00000
  17 5   C  1S          0.00000   0.00000   0.00000   0.00000   0.00000
  18        1PX         0.00000   0.00000   0.00000   0.00000   0.00000
  19        1PY         0.00000   0.00000   0.00000   0.00000   0.00000
  20        1PZ         0.00000   0.00000   0.00000   0.00000   0.00000
  21 6   C  1S          0.00000   0.00000   0.00000   0.00000   0.00000
  22        1PX         0.00000   0.00000   0.00000   0.00000   0.00000
  23        1PY         0.00000   0.00000   0.00000   0.00000   0.00000
  24        1PZ         0.00000   0.00000   0.00000   0.00000   0.00000
  25 7   C  1S          0.00000   0.00000   0.00000   0.00000   0.00000
  26        1PX         0.00000   0.00000   0.00000   0.00000   0.00000
  27        1PY         0.00000   0.00000   0.00000   0.00000   0.00000
  28        1PZ         0.00000   0.00000   0.00000   0.00000   0.00000
  29 8   H  1S          0.00000   0.00000   0.00000   0.00000   0.00000
  30 9   H  1S          0.00000   0.00000   0.00000   0.00000   0.00000
  31 10  H  1S          0.00000   0.00000   0.00000   0.00000   0.00000
  32 11  H  1S          0.00000   0.00000   0.00000   0.00000   0.00000
  33 12  H  1S          0.00000   0.00000   0.00000   0.00000   0.00000
  34 13  C  1S          0.00000   0.00000   0.00000   0.00000   0.00000
  35        1PX         0.00000   0.00000   0.00000   0.00000   0.00000
  36        1PY         0.00000   0.00000   0.00000   0.00000   0.00000
  37        1PZ         0.00000   0.00000   0.00000   0.00000   0.00000
  38 14  H  1S          0.00000   0.00000   0.00000   0.00000   0.00000
  39 15  H  1S          0.00000   0.00000   0.00000   0.00000   0.00000
  40 16  H  1S          0.00000   0.00000   0.00000   0.00000   0.00000
  41 17  H  1S          0.00000   0.00000   0.00000   0.00000   0.00000
                          11        12        13        14        15
  11        1PY         0.92767
  12        1PZ         0.00000   1.35532
  13 4   C  1S          0.00000   0.00000   1.20118
  14        1PX         0.00000   0.00000   0.00000   0.91062
  15        1PY         0.00000   0.00000   0.00000   0.00000   0.92130
  16        1PZ         0.00000   0.00000   0.00000   0.00000   0.00000
  17 5   C  1S          0.00000   0.00000   0.00000   0.00000   0.00000
  18        1PX         0.00000   0.00000   0.00000   0.00000   0.00000
  19        1PY         0.00000   0.00000   0.00000   0.00000   0.00000
  20        1PZ         0.00000   0.00000   0.00000   0.00000   0.00000
  21 6   C  1S          0.00000   0.00000   0.00000   0.00000   0.00000
  22        1PX         0.00000   0.00000   0.00000   0.00000   0.00000
  23        1PY         0.00000   0.00000   0.00000   0.00000   0.00000
  24        1PZ         0.00000   0.00000   0.00000   0.00000   0.00000
  25 7   C  1S          0.00000   0.00000   0.00000   0.00000   0.00000
  26        1PX         0.00000   0.00000   0.00000   0.00000   0.00000
  27        1PY         0.00000   0.00000   0.00000   0.00000   0.00000
  28        1PZ         0.00000   0.00000   0.00000   0.00000   0.00000
  29 8   H  1S          0.00000   0.00000   0.00000   0.00000   0.00000
  30 9   H  1S          0.00000   0.00000   0.00000   0.00000   0.00000
  31 10  H  1S          0.00000   0.00000   0.00000   0.00000   0.00000
  32 11  H  1S          0.00000   0.00000   0.00000   0.00000   0.00000
  33 12  H  1S          0.00000   0.00000   0.00000   0.00000   0.00000
  34 13  C  1S          0.00000   0.00000   0.00000   0.00000   0.00000
  35        1PX         0.00000   0.00000   0.00000   0.00000   0.00000
  36        1PY         0.00000   0.00000   0.00000   0.00000   0.00000
  37        1PZ         0.00000   0.00000   0.00000   0.00000   0.00000
  38 14  H  1S          0.00000   0.00000   0.00000   0.00000   0.00000
  39 15  H  1S          0.00000   0.00000   0.00000   0.00000   0.00000
  40 16  H  1S          0.00000   0.00000   0.00000   0.00000   0.00000
  41 17  H  1S          0.00000   0.00000   0.00000   0.00000   0.00000
                          16        17        18        19        20
  16        1PZ         0.90418
  17 5   C  1S          0.00000   1.19803
  18        1PX         0.00000   0.00000   0.93812
  19        1PY         0.00000   0.00000   0.00000   0.93845
  20        1PZ         0.00000   0.00000   0.00000   0.00000   0.95966
  21 6   C  1S          0.00000   0.00000   0.00000   0.00000   0.00000
  22        1PX         0.00000   0.00000   0.00000   0.00000   0.00000
  23        1PY         0.00000   0.00000   0.00000   0.00000   0.00000
  24        1PZ         0.00000   0.00000   0.00000   0.00000   0.00000
  25 7   C  1S          0.00000   0.00000   0.00000   0.00000   0.00000
  26        1PX         0.00000   0.00000   0.00000   0.00000   0.00000
  27        1PY         0.00000   0.00000   0.00000   0.00000   0.00000
  28        1PZ         0.00000   0.00000   0.00000   0.00000   0.00000
  29 8   H  1S          0.00000   0.00000   0.00000   0.00000   0.00000
  30 9   H  1S          0.00000   0.00000   0.00000   0.00000   0.00000
  31 10  H  1S          0.00000   0.00000   0.00000   0.00000   0.00000
  32 11  H  1S          0.00000   0.00000   0.00000   0.00000   0.00000
  33 12  H  1S          0.00000   0.00000   0.00000   0.00000   0.00000
  34 13  C  1S          0.00000   0.00000   0.00000   0.00000   0.00000
  35        1PX         0.00000   0.00000   0.00000   0.00000   0.00000
  36        1PY         0.00000   0.00000   0.00000   0.00000   0.00000
  37        1PZ         0.00000   0.00000   0.00000   0.00000   0.00000
  38 14  H  1S          0.00000   0.00000   0.00000   0.00000   0.00000
  39 15  H  1S          0.00000   0.00000   0.00000   0.00000   0.00000
  40 16  H  1S          0.00000   0.00000   0.00000   0.00000   0.00000
  41 17  H  1S          0.00000   0.00000   0.00000   0.00000   0.00000
                          21        22        23        24        25
  21 6   C  1S          1.19711
  22        1PX         0.00000   0.94340
  23        1PY         0.00000   0.00000   0.94384
  24        1PZ         0.00000   0.00000   0.00000   0.97699
  25 7   C  1S          0.00000   0.00000   0.00000   0.00000   1.21845
  26        1PX         0.00000   0.00000   0.00000   0.00000   0.00000
  27        1PY         0.00000   0.00000   0.00000   0.00000   0.00000
  28        1PZ         0.00000   0.00000   0.00000   0.00000   0.00000
  29 8   H  1S          0.00000   0.00000   0.00000   0.00000   0.00000
  30 9   H  1S          0.00000   0.00000   0.00000   0.00000   0.00000
  31 10  H  1S          0.00000   0.00000   0.00000   0.00000   0.00000
  32 11  H  1S          0.00000   0.00000   0.00000   0.00000   0.00000
  33 12  H  1S          0.00000   0.00000   0.00000   0.00000   0.00000
  34 13  C  1S          0.00000   0.00000   0.00000   0.00000   0.00000
  35        1PX         0.00000   0.00000   0.00000   0.00000   0.00000
  36        1PY         0.00000   0.00000   0.00000   0.00000   0.00000
  37        1PZ         0.00000   0.00000   0.00000   0.00000   0.00000
  38 14  H  1S          0.00000   0.00000   0.00000   0.00000   0.00000
  39 15  H  1S          0.00000   0.00000   0.00000   0.00000   0.00000
  40 16  H  1S          0.00000   0.00000   0.00000   0.00000   0.00000
  41 17  H  1S          0.00000   0.00000   0.00000   0.00000   0.00000
                          26        27        28        29        30
  26        1PX         0.96744
  27        1PY         0.00000   0.98863
  28        1PZ         0.00000   0.00000   1.14280
  29 8   H  1S          0.00000   0.00000   0.00000   0.92221
  30 9   H  1S          0.00000   0.00000   0.00000   0.00000   0.95333
  31 10  H  1S          0.00000   0.00000   0.00000   0.00000   0.00000
  32 11  H  1S          0.00000   0.00000   0.00000   0.00000   0.00000
  33 12  H  1S          0.00000   0.00000   0.00000   0.00000   0.00000
  34 13  C  1S          0.00000   0.00000   0.00000   0.00000   0.00000
  35        1PX         0.00000   0.00000   0.00000   0.00000   0.00000
  36        1PY         0.00000   0.00000   0.00000   0.00000   0.00000
  37        1PZ         0.00000   0.00000   0.00000   0.00000   0.00000
  38 14  H  1S          0.00000   0.00000   0.00000   0.00000   0.00000
  39 15  H  1S          0.00000   0.00000   0.00000   0.00000   0.00000
  40 16  H  1S          0.00000   0.00000   0.00000   0.00000   0.00000
  41 17  H  1S          0.00000   0.00000   0.00000   0.00000   0.00000
                          31        32        33        34        35
  31 10  H  1S          0.92808
  32 11  H  1S          0.00000   0.94396
  33 12  H  1S          0.00000   0.00000   0.92282
  34 13  C  1S          0.00000   0.00000   0.00000   1.22523
  35        1PX         0.00000   0.00000   0.00000   0.00000   0.97203
  36        1PY         0.00000   0.00000   0.00000   0.00000   0.00000
  37        1PZ         0.00000   0.00000   0.00000   0.00000   0.00000
  38 14  H  1S          0.00000   0.00000   0.00000   0.00000   0.00000
  39 15  H  1S          0.00000   0.00000   0.00000   0.00000   0.00000
  40 16  H  1S          0.00000   0.00000   0.00000   0.00000   0.00000
  41 17  H  1S          0.00000   0.00000   0.00000   0.00000   0.00000
                          36        37        38        39        40
  36        1PY         1.00742
  37        1PZ         0.00000   1.21880
  38 14  H  1S          0.00000   0.00000   0.92885
  39 15  H  1S          0.00000   0.00000   0.00000   0.92320
  40 16  H  1S          0.00000   0.00000   0.00000   0.00000   0.93577
  41 17  H  1S          0.00000   0.00000   0.00000   0.00000   0.00000
                          41
  41 17  H  1S          0.96231
     Gross orbital populations:
                           1
   1 1   C  1S          1.19780
   2        1PX         0.92190
   3        1PY         0.93326
   4        1PZ         1.35228
   5 2   C  1S          1.19685
   6        1PX         0.92254
   7        1PY         0.93962
   8        1PZ         0.92097
   9 3   C  1S          1.19747
  10        1PX         0.94009
  11        1PY         0.92767
  12        1PZ         1.35532
  13 4   C  1S          1.20118
  14        1PX         0.91062
  15        1PY         0.92130
  16        1PZ         0.90418
  17 5   C  1S          1.19803
  18        1PX         0.93812
  19        1PY         0.93845
  20        1PZ         0.95966
  21 6   C  1S          1.19711
  22        1PX         0.94340
  23        1PY         0.94384
  24        1PZ         0.97699
  25 7   C  1S          1.21845
  26        1PX         0.96744
  27        1PY         0.98863
  28        1PZ         1.14280
  29 8   H  1S          0.92221
  30 9   H  1S          0.95333
  31 10  H  1S          0.92808
  32 11  H  1S          0.94396
  33 12  H  1S          0.92282
  34 13  C  1S          1.22523
  35        1PX         0.97203
  36        1PY         1.00742
  37        1PZ         1.21880
  38 14  H  1S          0.92885
  39 15  H  1S          0.92320
  40 16  H  1S          0.93577
  41 17  H  1S          0.96231
          Condensed to atoms (all electrons):
               1          2          3          4          5          6
     1  C    4.405242   0.000000   0.000000   0.000000   0.000000   0.000000
     2  C    0.000000   3.979979   0.000000   0.000000   0.000000   0.000000
     3  C    0.000000   0.000000   4.420553   0.000000   0.000000   0.000000
     4  C    0.000000   0.000000   0.000000   3.937285   0.000000   0.000000
     5  C    0.000000   0.000000   0.000000   0.000000   4.034262   0.000000
     6  C    0.000000   0.000000   0.000000   0.000000   0.000000   4.061343
     7  C    0.000000   0.000000   0.000000   0.000000   0.000000   0.000000
     8  H    0.000000   0.000000   0.000000   0.000000   0.000000   0.000000
     9  H    0.000000   0.000000   0.000000   0.000000   0.000000   0.000000
    10  H    0.000000   0.000000   0.000000   0.000000   0.000000   0.000000
    11  H    0.000000   0.000000   0.000000   0.000000   0.000000   0.000000
    12  H    0.000000   0.000000   0.000000   0.000000   0.000000   0.000000
    13  C    0.000000   0.000000   0.000000   0.000000   0.000000   0.000000
    14  H    0.000000   0.000000   0.000000   0.000000   0.000000   0.000000
    15  H    0.000000   0.000000   0.000000   0.000000   0.000000   0.000000
    16  H    0.000000   0.000000   0.000000   0.000000   0.000000   0.000000
    17  H    0.000000   0.000000   0.000000   0.000000   0.000000   0.000000
               7          8          9         10         11         12
     1  C    0.000000   0.000000   0.000000   0.000000   0.000000   0.000000
     2  C    0.000000   0.000000   0.000000   0.000000   0.000000   0.000000
     3  C    0.000000   0.000000   0.000000   0.000000   0.000000   0.000000
     4  C    0.000000   0.000000   0.000000   0.000000   0.000000   0.000000
     5  C    0.000000   0.000000   0.000000   0.000000   0.000000   0.000000
     6  C    0.000000   0.000000   0.000000   0.000000   0.000000   0.000000
     7  C    4.317316   0.000000   0.000000   0.000000   0.000000   0.000000
     8  H    0.000000   0.922210   0.000000   0.000000   0.000000   0.000000
     9  H    0.000000   0.000000   0.953334   0.000000   0.000000   0.000000
    10  H    0.000000   0.000000   0.000000   0.928085   0.000000   0.000000
    11  H    0.000000   0.000000   0.000000   0.000000   0.943963   0.000000
    12  H    0.000000   0.000000   0.000000   0.000000   0.000000   0.922821
    13  C    0.000000   0.000000   0.000000   0.000000   0.000000   0.000000
    14  H    0.000000   0.000000   0.000000   0.000000   0.000000   0.000000
    15  H    0.000000   0.000000   0.000000   0.000000   0.000000   0.000000
    16  H    0.000000   0.000000   0.000000   0.000000   0.000000   0.000000
    17  H    0.000000   0.000000   0.000000   0.000000   0.000000   0.000000
              13         14         15         16         17
     1  C    0.000000   0.000000   0.000000   0.000000   0.000000
     2  C    0.000000   0.000000   0.000000   0.000000   0.000000
     3  C    0.000000   0.000000   0.000000   0.000000   0.000000
     4  C    0.000000   0.000000   0.000000   0.000000   0.000000
     5  C    0.000000   0.000000   0.000000   0.000000   0.000000
     6  C    0.000000   0.000000   0.000000   0.000000   0.000000
     7  C    0.000000   0.000000   0.000000   0.000000   0.000000
     8  H    0.000000   0.000000   0.000000   0.000000   0.000000
     9  H    0.000000   0.000000   0.000000   0.000000   0.000000
    10  H    0.000000   0.000000   0.000000   0.000000   0.000000
    11  H    0.000000   0.000000   0.000000   0.000000   0.000000
    12  H    0.000000   0.000000   0.000000   0.000000   0.000000
    13  C    4.423471   0.000000   0.000000   0.000000   0.000000
    14  H    0.000000   0.928853   0.000000   0.000000   0.000000
    15  H    0.000000   0.000000   0.923195   0.000000   0.000000
    16  H    0.000000   0.000000   0.000000   0.935775   0.000000
    17  H    0.000000   0.000000   0.000000   0.000000   0.962313
[...]
   zxz       -0.698904D+01     -0.603799D-01     -0.224094D-01
   zyz       -0.148362D+03     -0.128173D+01     -0.475701D+00
   zzz        0.205420D+03      0.177467D+01      0.658651D+00

 ----------------------------------------------------------------------
 1\1\GINC-IISERK51\Freq\RAM1\ZDO\C8H9(1-)\GAUSSIAN\12-Jun-2025\0\\#N Ge
 om=AllCheck Guess=TCheck SCRF=Check GenChk RAM1/ZDO Freq\\Optimisation
 \\-1,1\C,-0.5159780699,1.3488364654,0.1021953115\C,0.8471586654,1.5245
 980229,0.0943853127\C,1.8685164719,0.6093947163,-0.1035276213\C,-1.228
 4542144,0.1125505546,0.0634932084\C,1.7174268073,-0.7703094323,-0.3417
 669287\C,-0.5614779132,-1.0993503987,0.647303979\C,0.6335784436,-1.543
 0805965,-0.0916113733\H,-1.1455671083,2.2519438509,0.1330648309\H,1.18
 40715803,2.5776420583,0.2065873999\H,2.8957583425,1.0017606446,-0.1446
 989062\H,2.5992144469,-1.2681629147,-0.7931481726\H,0.6215037141,-2.58
 89298363,-0.4287190509\C,-2.4936025961,0.0163153865,-0.4039800131\H,-3
 .0626553033,-0.9167005426,-0.3708683665\H,-3.0105374504,0.8664601478,-
 0.8570814022\H,-0.2713497071,-0.8491117488,1.7076908621\H,-1.300057109
 5,-1.9462243774,0.7062869301\\Version=EM64L-G16RevB.01\State=1-A\HF=0.
 0416789\RMSD=2.958e-10\RMSF=1.449e-05\ZeroPoint=0.1467085\Thermal=0.15
 35469\Dipole=0.0278593,-0.3091209,0.1939706\DipoleDeriv=-2.077901,0.60
 10584,-0.1222077,-1.092908,-0.1309003,-0.0660466,0.067797,-0.0184241,-
 0.670139,2.2247942,-1.1355279,0.0884852,-0.6130117,0.5761086,-0.020714
 2,-0.0342637,0.1776747,0.1881027,-1.1283548,0.5378088,-0.0530175,1.223
 07,-1.773939,0.1500562,0.1972507,-0.2586424,-0.6659677,1.4570332,-0.05
 9988,0.2269637,1.0938357,-0.0730026,0.1036464,0.2935938,0.0092109,0.24
 60342,-0.0887144,0.559613,-0.0628292,-0.5861737,1.4729318,-0.1295195,-
 0.1031263,0.0558855,0.1253778,0.0378899,0.2376833,-0.0502404,-0.026363
 3,-0.0056273,-0.0763381,-0.0446701,-0.1217449,0.2337616,-0.1119758,-0.
 6396595,-0.0496953,0.1829832,-0.707415,0.1797668,-0.1341858,0.2514182,
 -0.4779186,0.0212281,-0.0103986,-0.0007159,-0.0189665,-0.0158217,-0.00
 70017,-0.1715452,0.0192846,0.1474698,-0.0232637,-0.0201673,0.0025541,-
 0.0229809,-0.0827464,-0.0222689,0.007252,-0.0281099,0.0602293,-0.01482
 05,-0.0347343,0.0134968,-0.0247805,0.0076413,-0.0314555,0.0317513,-0.0
 718524,0.1542694,-0.0618261,0.0559897,0.0487692,0.0470417,-0.0638074,-
 0.0217315,0.0235509,0.0321033,0.0415122,0.0160157,-0.0268222,0.0521294
 ,-0.0071333,0.0268791,-0.0590078,0.0498641,-0.059495,0.0879092,-1.2730
 451,0.0290523,0.0053351,-0.0759295,-0.1140443,-0.1343747,-0.1279827,-0
 .1246751,-0.6291786,0.0174058,-0.0266226,-0.0452499,0.0465733,-0.03095
 78,0.058072,-0.0318049,0.0450942,0.1203473,0.0524607,0.0038224,-0.0711
 291,-0.0937957,-0.017896,0.0401635,-0.0461511,0.0360505,0.1512691,-0.0
 139108,-0.0323073,0.0052748,0.0079432,-0.0017951,0.0266486,0.0045472,0
 .0306742,-0.0882588,-0.0330044,-0.0388331,0.0120598,-0.039404,-0.06565
 02,0.0100967,0.0180724,0.0255563,-0.0248184\Polar=140.5189077,-2.52915
 76,94.7509509,3.0980197,1.3598271,28.0132555\HyperPolar=-403.5276542,4
 6.6930113,-11.5722783,-395.2654743,26.3371509,-16.3352774,-30.5217187,
 8.1444826,4.318797,24.2909845\PG=C01 [X(C8H9)]\NImag=0\\0.86413299,0.0
 8044300,0.67428768,0.01127770,0.01577843,0.12298443,-0.45645247,-0.016
 11810,-0.00039558,0.92149515,-0.08345964,-0.09128340,0.00157610,-0.068
 17214,0.66693638,0.00029537,0.00097164,-0.05502245,-0.04343386,0.07541
 138,0.15428733,-0.08947231,0.01098032,0.00745524,-0.26914268,0.2033928
 5,0.04259523,0.70390798,0.07224708,0.03076469,-0.00573514,0.12906616,-
 0.23392934,-0.03025441,-0.06148568,0.79383601,0.01538411,0.00257220,0.
 00639472,0.03151432,-0.03664901,-0.06432274,-0.05914656,0.10918580,0.1
 3631626,-0.11471710,-0.11723628,-0.00463020,-0.07596414,-0.03226311,-0
 .00215645,0.01398226,-0.02336259,-0.00531382,0.86782222,-0.10480623,-0
 .30076220,-0.00837783,-0.07074680,-0.00017652,-0.00051131,0.01941478,-
 0.03035140,-0.00476840,0.08671826,0.68511237,0.00484001,-0.00490347,-0
 .06513209,-0.00560405,-0.00010209,0.00080144,0.00153321,-0.00134400,-0
 .00224942,0.23985199,-0.07411332,0.29415259,-0.01281309,-0.00287233,0.
 00213673,0.02143809,0.01981503,-0.00032843,-0.08236763,-0.00549830,0.0
 0399412,0.00326186,0.00536656,0.00054275,0.73233127,-0.04154505,-0.017
 15942,0.00435673,0.07950121,-0.07869224,-0.02053411,-0.06833324,-0.364
 35624,-0.04837910,0.01738580,0.02181789,0.00081742,0.18233333,0.805387
 92,-0.00386353,-0.00150232,-0.00092921,0.00819719,-0.01341742,-0.00028
 565,-0.00973096,-0.06356643,-0.07169575,0.00190336,0.00196463,0.000282
 93,-0.18300915,0.07212758,0.22624251,0.00556724,-0.00583981,0.00393259
 ,0.00770619,-0.00490595,-0.00106688,-0.00303382,0.01342460,0.00236740,
 -0.09897890,0.06683906,-0.03240977,-0.05594285,-0.01494617,0.02303041,
 0.61048159,0.00415189,-0.05191651,0.01189562,-0.00147164,0.00008365,0.
 00076617,-0.00055589,-0.00491996,-0.00033041,0.07301713,-0.19764262,0.
 06779565,-0.00947883,0.01391805,0.00810788,-0.02708786,0.57549949,-0.0
 0341476,0.01011506,0.00244241,-0.00034852,0.00048293,0.00009892,-0.000
 44410,-0.00144124,-0.00258264,-0.03590195,0.06979648,-0.10015347,0.022
 17048,0.00349499,-0.00566209,-0.03052864,-0.00093358,0.51098240,0.0155
 3334,0.00440674,-0.00328514,-0.02468458,0.01298624,0.00518364,-0.00046
 546,-0.06945739,-0.01002517,-0.03495357,0.02192608,0.00299481,-0.38522
 802,-0.19768084,0.08645978,-0.22450569,0.05236175,0.10805277,0.7540435
 0,0.01208625,0.00550067,-0.00102016,-0.02004057,0.00675648,0.00336122,
 -0.03211240,-0.07206889,-0.00283789,0.02611609,-0.02566458,-0.00873477
 ,-0.23345699,-0.22079889,0.05261584,0.06887690,-0.09179892,-0.04566992
 ,0.18064633,0.66693864,0.00084532,0.00084495,0.00152125,0.00097612,-0.
 00124567,-0.00120295,-0.00257267,0.00381242,0.01029766,0.00028482,-0.0
 0623775,0.00690125,0.07745824,0.04333571,-0.07697121,0.10701177,-0.038
 00496,-0.13055825,-0.23559720,0.08496146,0.27624525,-0.12179338,0.1249
 7867,0.00310297,-0.03777395,0.02808112,0.00146254,-0.00187932,-0.00321
 940,-0.00030415,0.00669251,-0.00886969,-0.00051541,0.00038265,0.000623
 24,-0.00002125,-0.00062850,-0.00126533,0.00019184,-0.00039350,-0.00011
 960,0.00006725,0.15826990,0.12478416,-0.21580056,-0.00733088,0.0107431
 6,-0.00167148,-0.00064325,-0.00156561,0.00288505,0.00039670,0.00870902
 ,-0.04148655,-0.00149800,-0.00085047,-0.00181699,-0.00010522,-0.002309
 63,-0.00184170,-0.00010387,0.00080551,0.00074601,-0.00007073,-0.139216
 89,0.26030964,-0.00205397,-0.01123087,-0.03086323,0.00560601,-0.000983
 92,0.00328849,-0.00129056,0.00290995,0.00503379,0.00654045,0.00041647,
 0.00706063,-0.00109396,-0.00294857,-0.00003045,-0.00275271,0.00231109,
 0.00197483,0.00207279,0.00109370,-0.00107496,-0.00424319,0.00903231,0.
 01767222,-0.02136707,-0.03299905,-0.00234254,-0.06280384,-0.07117696,-
 0.00820091,0.00411294,0.02095702,0.00268966,-0.00396025,-0.00004697,-0
 .00016317,-0.00176585,0.00170251,0.00073622,-0.00006123,0.00017353,-0.
 00007190,-0.00012215,-0.00009349,0.00009431,-0.00143839,-0.00051383,-0
 .00001947,0.08809872,-0.01519478,-0.01271101,-0.00157167,-0.07107737,-
 0.26322736,-0.02339420,0.00280679,-0.03682872,-0.00570437,-0.00058623,
 0.00072539,-0.00097767,0.00248478,-0.00108646,-0.00097778,0.00012443,0
 .00007323,0.00001399,0.00001016,0.00028413,0.00003920,0.00000210,0.000
 52778,0.00044022,0.08107074,0.31360586,-0.00049490,-0.00075605,0.00578
 809,-0.00936647,-0.02285436,-0.04525049,0.00185324,-0.00787686,0.00512
 038,0.00011779,-0.00055551,0.00677127,0.00075356,-0.00071868,0.0055837
 9,-0.00012950,-0.00013838,0.00001283,0.00008149,-0.00048975,-0.0002578
 7,-0.00005733,0.00017979,-0.00229464,0.00708431,0.03219298,0.02763842,
 0.00118610,0.00345896,0.00068346,-0.04294991,0.00080728,0.00396341,-0.
 26814815,-0.08996323,0.01015047,-0.00044601,-0.00080294,-0.00005750,-0
 .01058286,-0.01380368,-0.00057215,-0.00006060,0.00017020,0.00001283,0.
 00102889,-0.00037742,-0.00045610,-0.00068877,0.00004806,0.00008647,-0.
 00056096,0.00077482,-0.00004449,0.32068417,0.00093349,-0.00151191,-0.0
 0057918,0.01999343,0.00431046,-0.00185721,-0.08991524,-0.06853878,0.00
 175620,0.00002014,-0.00003882,-0.00005470,-0.03308225,-0.02685287,-0.0
 0109254,-0.00015567,0.00022412,-0.00011382,0.00155157,-0.00255969,-0.0
 0165877,0.00045235,-0.00001305,-0.00012044,0.00125442,-0.00035322,0.00
 013735,0.09978343,0.09715778,0.00135214,-0.00104486,0.00320499,0.00476
 816,0.00164578,0.00303572,0.01195930,-0.00196388,-0.03083594,-0.000310
 44,-0.00045786,0.00026415,-0.00313567,0.00001051,0.00411700,0.00049917
 ,-0.00027714,0.00009029,-0.00123718,-0.00167160,0.00209488,0.00025398,
 0.00006750,0.00097379,0.00005885,0.00014544,-0.00188122,-0.01382482,0.
 00342701,0.01934897,-0.00085990,-0.00039606,0.00004425,0.00185440,-0.0
 0120882,0.00134499,-0.00044929,0.01028127,0.00442740,0.00086126,0.0001
 6566,0.00002934,-0.20115627,0.08740999,0.08030430,-0.00124934,-0.00280
 941,0.00203556,-0.03518733,0.00634597,0.01799090,0.00001000,0.00000716
 ,-0.00013849,0.00002672,0.00000046,-0.00016500,0.00035884,-0.00034880,
 -0.00064827,0.23775995,0.00095972,0.00067125,-0.00010727,-0.00264103,-
 0.00242922,-0.00191483,0.02507772,-0.02900708,-0.01594772,-0.00073542,
 -0.00083170,0.00000283,0.09082078,-0.08831546,-0.04701340,-0.00190195,
 -0.00060336,-0.00080684,-0.01247379,0.00633826,0.00538801,0.00002418,0
 .00003362,0.00021151,0.00052785,-0.00068357,0.00037693,-0.00000222,-0.
 00111368,-0.00011751,-0.09922376,0.11574631,-0.00190585,-0.00067321,0.
 00024692,0.00279080,-0.00268153,0.00242425,0.00752480,-0.00478240,0.00
 248756,0.00131003,0.00059265,-0.00032482,0.07777356,-0.05149613,-0.083
 74744,0.00243691,-0.00092901,0.00626750,0.01664064,0.00076437,-0.00090
 097,0.00004897,-0.00006788,-0.00036551,0.00016368,-0.00018591,-0.00031
 166,-0.00013722,-0.00025630,-0.00080013,-0.10470696,0.05895099,0.07704
 499,0.00122408,0.00041868,-0.00025712,-0.00171261,0.00056613,0.0002107
 4,-0.00064549,-0.00300766,0.00262456,-0.00165641,-0.00048199,0.0015488
 9,-0.00348064,-0.02784797,-0.00517061,-0.00551247,0.02365885,0.0139265
 2,-0.03748061,-0.00301498,0.00032782,-0.00001654,0.00003479,0.00013821
 ,0.00003700,-0.00002529,-0.00021554,-0.00006567,-0.00049195,0.00024085
 ,-0.00096881,-0.00060200,-0.00112192,0.05247182,-0.00168235,-0.0007187
 2,0.00023071,0.00254496,-0.00065455,-0.00048775,-0.00388953,0.00403520
 ,-0.00027923,0.00109160,0.00102907,-0.00080157,-0.01350583,-0.03507438
 ,-0.00597861,0.00793793,-0.01596000,-0.01173955,-0.00227985,-0.2806747
 2,-0.07988764,0.00005169,-0.00009004,-0.00012636,-0.00000702,-0.000045
 15,0.00016232,-0.00014271,-0.00069666,0.00000778,-0.00033833,-0.000105
 65,0.00082886,0.00946218,0.32900504,-0.00086455,-0.00099047,-0.0000375
 5,0.00062269,-0.00022045,0.00003980,0.00226302,-0.00151864,0.00480621,
 0.00112611,0.00152444,-0.00051259,0.00187976,0.00357904,0.00410636,0.0
 0897050,-0.01874318,-0.00296627,-0.00153128,-0.08194362,-0.05826398,-0
 .00001335,-0.00001361,0.00014488,-0.00001233,-0.00003215,-0.00033005,0
 .00018988,0.00036616,0.00063694,-0.00080122,0.00078480,-0.00228965,-0.
 01296429,0.09776028,0.05611246,-0.06944507,-0.05223044,-0.01526366,0.0
 2205589,-0.00502207,0.00085057,-0.00802270,0.01239178,0.00241143,-0.51
 001935,-0.01806251,-0.17053709,-0.00239124,-0.00897908,-0.00103079,-0.
 03883179,0.02031214,-0.02221192,0.00310357,0.00437833,-0.00180744,-0.0
 0051452,-0.00050768,-0.00316202,-0.00005049,-0.00027146,0.00037558,0.0
 0030761,-0.00001467,0.00006571,-0.00032308,0.00038646,-0.00037081,0.00
 008182,-0.00024958,-0.00027028,0.81354755,-0.04883340,-0.01719915,-0.0
 1180090,0.00593564,-0.00524359,-0.00074601,-0.00293084,0.00590829,0.00
 102790,-0.03348139,-0.07386815,-0.00967598,-0.00157918,-0.00481130,-0.
 00037811,0.03129060,-0.00635148,0.01620104,0.00276126,0.00044573,0.001
 06194,-0.00140626,-0.00113895,-0.00071012,-0.00076237,-0.00026479,0.00
 042735,0.00008551,0.00001229,0.00015089,-0.00010047,0.00020848,-0.0002
 6458,0.00028273,-0.00026800,-0.00029529,0.06738208,0.56050355,-0.01782
 729,-0.01266287,0.00634243,0.00532585,-0.00049105,0.00179736,-0.002019
 51,0.00252818,0.00100800,-0.17062209,-0.00522383,-0.12441060,-0.000408
 89,-0.00161656,-0.00033498,-0.02582647,0.01163531,-0.00568030,0.000786
 92,0.00139148,0.00031744,0.00000409,0.00002517,-0.00145497,0.00014259,
 0.00004764,-0.00025572,0.00006258,0.00006305,-0.00018513,-0.00014122,0
 .00009119,-0.00005851,-0.00034442,0.00015634,-0.00031509,0.26415067,-0
 .09864475,0.24158436,-0.00243786,0.00025989,-0.00311944,0.00061140,-0.
 00073493,-0.00076496,-0.00032876,0.00066057,0.00010966,-0.02774039,-0.
 03085953,-0.00429086,-0.00017171,-0.00051130,-0.00011859,-0.00141189,-
 0.00016579,0.00067614,0.00003197,0.00028726,0.00016790,0.00001960,-0.0
 0003242,0.00013979,-0.00016043,-0.00007889,0.00033296,0.00000991,-0.00
 000123,0.00007849,-0.00000311,0.00002362,-0.00000849,-0.00001984,-0.00
 000209,-0.00004442,-0.11108324,-0.12164461,0.00219348,0.13729596,0.000
 53888,0.00243690,0.00122676,-0.00141147,0.00003927,0.00011574,0.000475
 19,-0.00060355,-0.00014644,-0.01270898,-0.00646699,-0.00203540,0.00002
 357,0.00031585,0.00008974,0.00080230,0.00062389,-0.00072849,0.00015548
 ,-0.00031680,-0.00002826,0.00004795,0.00018829,0.00027014,-0.00005741,
 0.00002174,-0.00013510,-0.00002970,0.00000615,-0.00000355,0.00003157,-
 0.00001438,0.00001198,0.00004007,-0.00000775,0.00004088,-0.12429393,-0
 .24378338,0.00902511,0.14527606,0.27627646,-0.00215759,0.00319387,0.00
 524400,-0.00150148,-0.00059830,0.00087991,0.00057369,-0.00057301,-0.00
 013372,-0.00955619,-0.01072612,0.00298354,-0.00001728,0.00020356,0.000
 16814,0.00001626,-0.00068442,-0.00269102,0.00048907,-0.00046269,-0.000
 27519,0.00002999,0.00031451,-0.00002839,-0.00018719,0.00001099,-0.0005
 2529,-0.00005082,0.00000383,-0.00007363,0.00001387,-0.00000648,-0.0000
 0731,0.00008764,-0.00002562,0.00011274,0.00318662,0.00977839,-0.034243
 73,0.00712519,-0.01404056,0.02533251,0.00065795,0.00133679,0.00105435,
 -0.00185464,0.00046232,0.00003876,0.00080370,-0.00123499,-0.00014485,-
 0.02656559,0.02448241,-0.01935729,0.00016866,0.00088620,0.00008982,-0.
 00201671,-0.00112947,-0.00358868,0.00011978,-0.00053896,-0.00008955,-0
 .00033811,-0.00038773,-0.00015522,0.00000008,0.00001125,-0.00009820,-0
 .00003631,-0.00000121,-0.00003676,0.00001522,-0.00004350,0.00003931,-0
 .00002502,0.00005319,0.00008617,-0.09825072,0.09981522,-0.05470866,0.0
 0608263,-0.00886778,0.00256589,0.12160652,-0.00189123,-0.00118154,-0.0
 0095325,0.00161635,-0.00028137,0.00004030,-0.00068538,0.00085766,0.000
 11299,0.00809354,0.00254483,0.00362272,0.00000727,-0.00053462,-0.00008
 227,-0.00087568,0.00015468,0.00183673,-0.00018185,0.00069725,-0.000053
 22,0.00006081,-0.00028827,-0.00018857,0.00000971,-0.00001853,0.0000613
 7,0.00002692,-0.00000007,0.00001002,-0.00002053,0.00003323,-0.00000900
 ,-0.00006278,0.00001510,-0.00006020,0.10233916,-0.21042727,0.09196163,
 0.00671085,-0.02845346,0.01279912,-0.11539998,0.23689553,0.00095708,-0
 .00083983,-0.00278577,-0.00061495,0.00073934,0.00013064,0.00018363,-0.
 00142789,-0.00041054,-0.01432151,0.01178372,-0.00471544,0.00094688,0.0
 0150644,0.00000305,-0.00202508,-0.00010091,0.00642407,-0.00220032,0.00
 077121,0.00014282,-0.00018365,-0.00039903,-0.00006866,0.00004341,-0.00
 004548,0.00017853,0.00001732,0.00001387,-0.00003491,0.00002672,-0.0000
 3654,0.00013444,-0.00020179,0.00010606,-0.00010917,-0.05571637,0.09156
 556,-0.08334072,-0.00186782,0.00621767,0.00371737,0.07457025,-0.109161
 76,0.08043133,0.00095026,-0.00005537,-0.00000829,-0.00098058,0.0004899
 9,0.00004389,0.00074770,-0.00137684,-0.00075493,-0.00467905,0.00510701
 ,-0.01788484,0.00035388,0.00206842,0.00129073,-0.05331796,-0.01652793,
 -0.05701921,-0.00009782,0.00831372,0.02499236,-0.00003993,0.00000750,0
 .00028431,0.00001014,-0.00000690,-0.00004611,-0.00000151,0.00003693,-0
 .00006517,-0.00009767,0.00008855,-0.00066445,-0.00133321,0.00073403,0.
 00065134,0.00001731,0.00101971,0.00000563,0.00016204,-0.00003292,-0.00
 024015,-0.00037423,0.00017626,0.00039979,0.06623319,-0.00043288,-0.001
 53799,0.00116406,0.00137420,-0.00035087,-0.00011410,-0.00035170,0.0015
 3025,-0.00022495,0.01185600,0.00076445,0.02416331,-0.00109418,-0.00123
 305,0.00007102,-0.01760389,-0.05013016,-0.04852763,0.00576294,0.000812
 56,-0.01364907,0.00000272,0.00006050,-0.00044331,-0.00000621,0.0000001
 7,0.00000562,-0.00000760,-0.00002389,0.00001173,0.00007279,-0.00005688
 ,0.00023786,0.00028035,-0.00015388,-0.00007974,0.00049388,-0.00189965,
 0.00039522,-0.00014224,0.00006868,0.00022925,0.00071999,-0.00013226,-0
 .00055971,0.01180831,0.06132118,-0.00123925,-0.00006242,0.00047260,0.0
 0163349,-0.00053998,-0.00066737,-0.00071758,0.00211312,0.00054044,-0.0
 1466103,0.00969983,-0.02321350,-0.00131771,-0.00250019,-0.00030876,-0.
 05781358,-0.04803577,-0.23628643,0.01309471,-0.01207379,-0.02753403,0.
 00001431,-0.00013781,0.00012879,-0.00001817,-0.00001612,0.00002804,-0.
 00002423,-0.00004551,0.00008093,-0.00000948,-0.00007580,0.00041770,0.0
 0052779,0.00002197,-0.00095399,0.00013145,0.00102129,-0.00011568,0.000
 11789,-0.00003036,-0.00014482,-0.00034017,0.00009309,0.00024951,0.0671
 7767,0.05739218,0.29218728,0.00010653,0.00146402,-0.00038484,-0.000843
 09,0.00034238,-0.00003790,0.00040113,-0.00042178,0.00001680,0.00706116
 ,0.00465712,-0.00052102,-0.00203572,0.00173638,0.00150514,-0.13820340,
 -0.11335295,0.00646406,-0.03074227,-0.01729629,0.01030617,0.00013015,0
 .00024479,0.00004157,0.00000510,-0.00004464,0.00001851,-0.00003474,-0.
 00001462,-0.00001841,-0.00059169,-0.00028521,0.00018679,-0.00089750,0.
 00022157,0.00071185,-0.00018144,0.00216567,-0.00077347,-0.00085643,0.0
 0001092,-0.00037760,0.00000692,0.00007669,-0.00001366,-0.00755235,-0.0
 1273244,-0.00655631,0.17422768,0.00170165,-0.00187888,0.00124771,0.000
 90358,-0.00018599,-0.00020963,-0.00032229,0.00078716,0.00021557,-0.012
 63413,-0.03470428,0.00783960,0.00056720,-0.00070826,-0.00086213,-0.113
 66935,-0.16941261,0.00812344,-0.00130053,0.00536323,0.00139217,-0.0002
 2767,-0.00060344,0.00006694,-0.00003260,-0.00001964,-0.00001902,-0.000
 02552,-0.00000824,0.00005982,0.00013150,0.00012989,-0.00004056,0.00079
 097,0.00036489,-0.00015817,0.00194791,-0.00182226,0.00131856,0.0009545
 7,-0.00033110,0.00058369,-0.00016361,0.00011903,-0.00013298,-0.0118504
 3,-0.00903914,-0.00682380,0.13322847,0.21194948,-0.00113162,0.00118838
 ,0.00013067,-0.00016823,-0.00007197,-0.00003401,-0.00002036,-0.0000655
 8,0.00022744,0.00634106,0.01519475,0.00149277,0.00165462,-0.00123841,-
 0.00053899,0.00428764,0.00566596,-0.04171339,0.01801993,0.00994550,-0.
 00048047,0.00016232,0.00035447,-0.00009706,0.00000272,0.00001507,-0.00
 001406,0.00000103,0.00001105,-0.00003721,0.00039330,0.00022023,-0.0002
 1735,0.00064271,0.00005183,-0.00018117,-0.00080280,0.00128161,-0.00065
 305,-0.00072669,0.00014998,-0.00031556,0.00007488,-0.00002975,0.000053
 27,-0.01816261,-0.02007171,-0.00488059,-0.01056770,-0.01260133,0.04725
 884\\0.00001195,-0.00001904,-0.00000216,-0.00002896,-0.00002694,-0.000
 00257,0.00001448,0.00001007,0.00000521,0.00002734,0.00004384,0.0000078
 0,-0.00003184,-0.00001854,0.00000026,-0.00001221,-0.00001385,0.0000137
 0,0.00004291,0.00002915,-0.00000976,0.00000191,0.00000239,-0.00000503,
 -0.00000236,0.00000790,0.00000153,-0.00000630,-0.00000522,0.00000104,0
 .00000202,0.00000090,-0.00000256,0.00000096,-0.00000787,0.00000368,-0.
 00001996,-0.00000374,0.00000052,0.00000030,-0.00000264,0.00000135,0.00
 000102,0.00000398,-0.00000168,0.00000194,0.00000590,-0.00000161,-0.000
 00320,-0.00000630,-0.00000973\\\@


 IF AT FIRST YOU DON'T SUCCEED, TRY, TRY AGAIN.
 THEN GIVE UP;
 THERE'S NO USE BEING A DAMN FOOL ABOUT IT.

                                 -- W. C. FIELDS
 Job cpu time:       0 days  0 hours  0 minutes  0.6 seconds.
 Elapsed time:       0 days  0 hours  0 minutes  0.5 seconds.
 File lengths (MBytes):  RWF=     15 Int=      0 D2E=      0 Chk=      2 Scr=      1
 Normal termination of Gaussian 16 at Thu Jun 12 22:56:55 2025.
