 Entering Gaussian System, Link 0=g16
 Input=/home/gaussian/Documents/program files/Aromaticity/AM1 HF3-21G*/cycloheptatrienyl_cation/sp/cycloheptatrienyl_cation_sp.com
 Output=/home/gaussian/Documents/program files/Aromaticity/AM1 HF3-21G*/cycloheptatrienyl_cation/sp/cycloheptatrienyl_cation_sp.log
 Initial command:
 /usr/local/g16/l1.exe "/home/gaussian/tmp/Gau-143226.inp" -scrdir="/home/gaussian/tmp/"
 Entering Link 1 = /usr/local/g16/l1.exe PID=    143229.
  
 Copyright (c) 1988-2017, Gaussian, Inc.  All Rights Reserved.
  
 This is part of the Gaussian(R) 16 program.  It is based on
 the Gaussian(R) 09 system (copyright 2009, Gaussian, Inc.),
 the Gaussian(R) 03 system (copyright 2003, Gaussian, Inc.),
 the Gaussian(R) 98 system (copyright 1998, Gaussian, Inc.),
 the Gaussian(R) 94 system (copyright 1995, Gaussian, Inc.),
 the Gaussian 92(TM) system (copyright 1992, Gaussian, Inc.),
 the Gaussian 90(TM) system (copyright 1990, Gaussian, Inc.),
 the Gaussian 88(TM) system (copyright 1988, Gaussian, Inc.),
 the Gaussian 86(TM) system (copyright 1986, Carnegie Mellon
 University), and the Gaussian 82(TM) system (copyright 1983,
 Carnegie Mellon University). Gaussian is a federally registered
 trademark of Gaussian, Inc.
  
 This software contains proprietary and confidential information,
 including trade secrets, belonging to Gaussian, Inc.
  
 This software is provided under written license and may be
 used, copied, transmitted, or stored only in accord with that
 written license.
  
 The following legend is applicable only to US Government
 contracts under FAR:
  
                    RESTRICTED RIGHTS LEGEND
  
 Use, reproduction and disclosure by the US Government is
 subject to restrictions as set forth in subparagraphs (a)
 and (c) of the Commercial Computer Software - Restricted
 Rights clause in FAR 52.227-19.
  
 Gaussian, Inc.
 340 Quinnipiac St., Bldg. 40, Wallingford CT 06492
  
  
 ---------------------------------------------------------------
 Warning -- This program may not be used in any manner that
 competes with the business of Gaussian, Inc. or will provide
 assistance to any competitor of Gaussian, Inc.  The licensee
 of this program is prohibited from giving any competitor of
 Gaussian, Inc. access to this program.  By using this program,
 the user acknowledges that Gaussian, Inc. is engaged in the
 business of creating and licensing software in the field of
 computational chemistry and represents and warrants to the
 licensee that it is not a competitor of Gaussian, Inc. and that
 it will not use this program in any manner prohibited above.
 ---------------------------------------------------------------
  

 Cite this work as:
 Gaussian 16, Revision B.01,
 M. J. Frisch, G. W. Trucks, H. B. Schlegel, G. E. Scuseria, 
 M. A. Robb, J. R. Cheeseman, G. Scalmani, V. Barone, 
 G. A. Petersson, H. Nakatsuji, X. Li, M. Caricato, A. V. Marenich, 
 J. Bloino, B. G. Janesko, R. Gomperts, B. Mennucci, H. P. Hratchian, 
 J. V. Ortiz, A. F. Izmaylov, J. L. Sonnenberg, D. Williams-Young, 
 F. Ding, F. Lipparini, F. Egidi, J. Goings, B. Peng, A. Petrone, 
 T. Henderson, D. Ranasinghe, V. G. Zakrzewski, J. Gao, N. Rega, 
 G. Zheng, W. Liang, M. Hada, M. Ehara, K. Toyota, R. Fukuda, 
 J. Hasegawa, M. Ishida, T. Nakajima, Y. Honda, O. Kitao, H. Nakai, 
 T. Vreven, K. Throssell, J. A. Montgomery, Jr., J. E. Peralta, 
 F. Ogliaro, M. J. Bearpark, J. J. Heyd, E. N. Brothers, K. N. Kudin, 
 V. N. Staroverov, T. A. Keith, R. Kobayashi, J. Normand, 
 K. Raghavachari, A. P. Rendell, J. C. Burant, S. S. Iyengar, 
 J. Tomasi, M. Cossi, J. M. Millam, M. Klene, C. Adamo, R. Cammi, 
 J. W. Ochterski, R. L. Martin, K. Morokuma, O. Farkas, 
 J. B. Foresman, and D. J. Fox, Gaussian, Inc., Wallingford CT, 2016.
 
 ******************************************
 Gaussian 16:  EM64L-G16RevB.01 20-Dec-2017
                12-Jun-2025 
 ******************************************
 %chk=cycloheptatrienyl_cation_sp.chk
 --------------------------------------
 # hf/3-21g* pop=full geom=connectivity
 --------------------------------------
 1/38=1,57=2,172=1/1;
 2/12=2,17=6,18=5,40=1/2;
 3/5=5,7=1,11=9,25=1,30=1/1,2,3;
 4//1;
 5/5=2,38=5/2;
 6/7=3,28=1/1;
 99/5=1,9=1/99;
 ------------
 Optimisation
 ------------
 Symbolic Z-matrix:
 Charge =  1 Multiplicity = 1
 C                    -0.53767  -1.24275  -0.00001 
 C                     0.81039  -1.55691   0.00002 
 C                     1.91136  -0.7016   -0.00016 
 C                    -1.16038   0.01233  -0.00019 
 C                     1.92      0.68294  -0.00006 
 C                    -0.52325   1.25793  -0.00009 
 C                     0.83057   1.55219   0.00004 
 H                    -1.23224  -2.11608   0.00012 
 H                     1.05131  -2.6461    0.00017 
 H                     2.90928  -1.19831  -0.00036 
 H                     2.92426   1.16674  -0.00004 
 H                    -1.20057   2.14456  -0.0001 
 H                     1.08614   2.63817   0.00019 
 C                    -2.65059   0.00353   0.00011 
 H                    -3.03076  -0.54636  -0.90007 
 H                    -3.02933  -0.52408   0.91425 
 H                    -3.08066   1.03545  -0.01222 
 
                          Input orientation:                          
 ---------------------------------------------------------------------
 Center     Atomic      Atomic             Coordinates (Angstroms)
 Number     Number       Type             X           Y           Z
 ---------------------------------------------------------------------
      1          6           0       -0.537674   -1.242745   -0.000009
      2          6           0        0.810389   -1.556906    0.000024
      3          6           0        1.911356   -0.701601   -0.000159
      4          6           0       -1.160377    0.012326   -0.000188
      5          6           0        1.920004    0.682943   -0.000055
      6          6           0       -0.523251    1.257926   -0.000094
      7          6           0        0.830570    1.552190    0.000044
      8          1           0       -1.232238   -2.116081    0.000122
      9          1           0        1.051308   -2.646102    0.000169
     10          1           0        2.909280   -1.198307   -0.000359
     11          1           0        2.924262    1.166740   -0.000038
     12          1           0       -1.200568    2.144560   -0.000100
     13          1           0        1.086139    2.638174    0.000192
     14          6           0       -2.650590    0.003532    0.000112
     15          1           0       -3.030763   -0.546355   -0.900066
     16          1           0       -3.029327   -0.524077    0.914247
     17          1           0       -3.080655    1.035454   -0.012217
 ---------------------------------------------------------------------
                    Distance matrix (angstroms):
                    1          2          3          4          5
     1  C    0.000000
     2  C    1.384186   0.000000
     3  C    2.508104   1.394157   0.000000
     4  C    1.401058   2.519208   3.153607   0.000000
     5  C    3.122252   2.499634   1.384571   3.152535   0.000000
     6  C    2.500713   3.114783   3.125229   1.399089   2.510000
     7  C    3.111873   3.109161   2.499534   2.516953   1.393720
     8  H    1.115856   2.117782   3.447164   2.129620   4.215586
     9  H    2.119970   1.115522   2.126209   3.458148   3.440519
    10  H    3.447240   2.129304   1.114706   4.245909   2.125504
    11  H    4.217893   3.447710   2.125247   4.244637   1.114717
    12  H    3.451560   4.212458   4.217191   2.132613   3.445910
    13  H    4.206935   4.204133   3.440215   3.455707   2.125620
    14  C    2.453084   3.796491   4.616120   1.490239   4.620815
    15  H    2.740539   4.072570   5.025781   2.149476   5.179893
    16  H    2.749670   4.079946   5.027723   2.148696   5.175782
    17  H    3.414248   4.675543   5.285611   2.175868   5.013083
                    6          7          8          9         10
     6  C    0.000000
     7  C    1.385432   0.000000
     8  H    3.447693   4.208490   0.000000
     9  H    4.209593   4.204091   2.344249   0.000000
    10  H    4.220823   3.447647   4.241990   2.355455   0.000000
    11  H    3.448719   2.128877   5.296547   4.248026   2.365094
    12  H    1.115741   2.115756   4.260759   5.293523   5.297699
    13  H    2.120194   1.115651   5.289406   5.284391   4.247638
    14  C    2.469631   3.810094   2.550389   4.552429   5.688284
    15  H    3.217607   4.485976   2.551288   4.677891   6.043064
    16  H    3.208110   4.477215   2.568975   4.689361   6.046333
    17  H    2.567091   3.945231   3.653624   5.534178   6.392898
                   11         12         13         14         15
    11  H    0.000000
    12  H    4.239145   0.000000
    13  H    2.354531   2.339377   0.000000
    14  C    5.694912   2.585839   4.572142   0.000000
    15  H    6.261555   3.376474   5.282099   1.121262   0.000000
    16  H    6.256197   3.361847   5.269951   1.121363   1.814450
    17  H    6.006364   2.182886   4.464419   1.118021   1.814631
                   16         17
    16  H    0.000000
    17  H    1.814692   0.000000
 Stoichiometry    C8H9(1+)
 Framework group  C1[X(C8H9)]
 Deg. of freedom    45
 Full point group                 C1      NOp   1
 Largest Abelian subgroup         C1      NOp   1
 Largest concise Abelian subgroup C1      NOp   1
                         Standard orientation:                         
 ---------------------------------------------------------------------
 Center     Atomic      Atomic             Coordinates (Angstroms)
 Number     Number       Type             X           Y           Z
 ---------------------------------------------------------------------
      1          6           0       -0.537674   -1.242745   -0.000009
      2          6           0        0.810389   -1.556906    0.000024
      3          6           0        1.911356   -0.701601   -0.000159
      4          6           0       -1.160377    0.012326   -0.000188
      5          6           0        1.920004    0.682943   -0.000055
      6          6           0       -0.523251    1.257926   -0.000094
      7          6           0        0.830570    1.552190    0.000044
      8          1           0       -1.232238   -2.116081    0.000122
      9          1           0        1.051308   -2.646102    0.000169
     10          1           0        2.909280   -1.198307   -0.000359
     11          1           0        2.924262    1.166740   -0.000038
     12          1           0       -1.200568    2.144560   -0.000100
     13          1           0        1.086139    2.638174    0.000192
     14          6           0       -2.650590    0.003532    0.000112
     15          1           0       -3.030763   -0.546355   -0.900066
     16          1           0       -3.029327   -0.524077    0.914247
     17          1           0       -3.080655    1.035454   -0.012217
 ---------------------------------------------------------------------
 Rotational constants (GHZ):           3.7056246           1.9179654           1.2744040
 Standard basis: 3-21G* (6D, 7F)
 There are    90 symmetry adapted cartesian basis functions of A   symmetry.
 There are    90 symmetry adapted basis functions of A   symmetry.
    90 basis functions,   147 primitive gaussians,    90 cartesian basis functions
    28 alpha electrons       28 beta electrons
       nuclear repulsion energy       331.1985664913 Hartrees.
 NAtoms=   17 NActive=   17 NUniq=   17 SFac= 1.00D+00 NAtFMM=   60 NAOKFM=F Big=F
 Integral buffers will be    131072 words long.
 Raffenetti 1 integral format.
 Two-electron integral symmetry is turned on.
 One-electron integrals computed using PRISM.
 NBasis=    90 RedAO= T EigKep=  3.79D-03  NBF=    90
 NBsUse=    90 1.00D-06 EigRej= -1.00D+00 NBFU=    90
 ExpMin= 1.83D-01 ExpMax= 1.72D+02 ExpMxC= 1.72D+02 IAcc=3 IRadAn=         5 AccDes= 0.00D+00
 Harris functional with IExCor=  205 and IRadAn=       5 diagonalized for initial guess.
 HarFok:  IExCor=  205 AccDes= 0.00D+00 IRadAn=         5 IDoV= 1 UseB2=F ITyADJ=14
 ICtDFT=  3500011 ScaDFX=  1.000000  1.000000  1.000000  1.000000
 FoFCou: FMM=F IPFlag=           0 FMFlag=      100000 FMFlg1=           0
         NFxFlg=           0 DoJE=T BraDBF=F KetDBF=T FulRan=T
         wScrn=  0.000000 ICntrl=       500 IOpCl=  0 I1Cent=   200000004 NGrid=           0
         NMat0=    1 NMatS0=      1 NMatT0=    0 NMatD0=    1 NMtDS0=    0 NMtDT0=    0
 Petite list used in FoFCou.
 Keep R1 ints in memory in canonical form, NReq=9230900.
 Requested convergence on RMS density matrix=1.00D-08 within 128 cycles.
 Requested convergence on MAX density matrix=1.00D-06.
 Requested convergence on             energy=1.00D-06.
 No special actions if energy rises.
 SCF Done:  E(RHF) =  -306.208566223     A.U. after   13 cycles
            NFock= 13  Conv=0.61D-08     -V/T= 2.0037

 **********************************************************************

            Population analysis using the SCF Density.

 **********************************************************************

 Orbital symmetries:
       Occupied  (A) (A) (A) (A) (A) (A) (A) (A) (A) (A) (A) (A)
                 (A) (A) (A) (A) (A) (A) (A) (A) (A) (A) (A) (A)
                 (A) (A) (A) (A)
       Virtual   (A) (A) (A) (A) (A) (A) (A) (A) (A) (A) (A) (A)
                 (A) (A) (A) (A) (A) (A) (A) (A) (A) (A) (A) (A)
                 (A) (A) (A) (A) (A) (A) (A) (A) (A) (A) (A) (A)
                 (A) (A) (A) (A) (A) (A) (A) (A) (A) (A) (A) (A)
                 (A) (A) (A) (A) (A) (A) (A) (A) (A) (A) (A) (A)
                 (A) (A)
 The electronic state is 1-A.
 Alpha  occ. eigenvalues --  -11.42019 -11.41038 -11.40965 -11.40756 -11.40606
 Alpha  occ. eigenvalues --  -11.40517 -11.40387 -11.33875  -1.35726  -1.27810
 Alpha  occ. eigenvalues --   -1.25946  -1.15074  -1.09973  -1.04845  -0.93504
 Alpha  occ. eigenvalues --   -0.92180  -0.89245  -0.82009  -0.79817  -0.75383
 Alpha  occ. eigenvalues --   -0.74655  -0.73873  -0.69157  -0.68801  -0.68433
 Alpha  occ. eigenvalues --   -0.68021  -0.57181  -0.55269
 Alpha virt. eigenvalues --   -0.14318  -0.13912   0.05193   0.10346   0.11255
 Alpha virt. eigenvalues --    0.11903   0.13343   0.15425   0.16900   0.20172
 Alpha virt. eigenvalues --    0.20886   0.21663   0.21864   0.25125   0.28261
 Alpha virt. eigenvalues --    0.30470   0.40287   0.42215   0.45381   0.48421
 Alpha virt. eigenvalues --    0.63152   0.65756   0.73090   0.73907   0.76511
 Alpha virt. eigenvalues --    0.79566   0.81004   0.82943   0.83511   0.86906
 Alpha virt. eigenvalues --    0.87171   0.89797   0.91151   0.91350   0.94549
 Alpha virt. eigenvalues --    0.96638   0.98985   1.00147   1.03826   1.07786
 Alpha virt. eigenvalues --    1.09387   1.13570   1.16726   1.18344   1.20495
 Alpha virt. eigenvalues --    1.22778   1.26436   1.27526   1.28811   1.35952
 Alpha virt. eigenvalues --    1.36787   1.49855   1.51078   1.57684   1.58512
 Alpha virt. eigenvalues --    1.60695   1.70283   1.81817   1.84190   2.03906
 Alpha virt. eigenvalues --    2.23551   2.26587
     Molecular Orbital Coefficients:
                           1         2         3         4         5
                           O         O         O         O         O
     Eigenvalues --   -11.42019 -11.41038 -11.40965 -11.40756 -11.40606
   1 1   C  1S         -0.01347   0.00088  -0.04774  -0.03697  -0.03881
   2        2S         -0.00490   0.00016  -0.00920  -0.00399  -0.00424
   3        2PX         0.00035  -0.00025  -0.00187  -0.00140  -0.00012
   4        2PY        -0.00153   0.00017  -0.00025   0.00011  -0.00024
   5        2PZ         0.00000  -0.00000   0.00000  -0.00000   0.00000
   6        3S          0.02568   0.00086   0.03865  -0.00216   0.00820
   7        3PX        -0.00327  -0.00009   0.01918   0.00061   0.00260
   8        3PY         0.01585   0.00087   0.00754  -0.00435   0.00080
   9        3PZ        -0.00001   0.00000  -0.00000   0.00000  -0.00000
  10 2   C  1S         -0.00544  -0.01457   0.97993   0.10343   0.02847
  11        2S         -0.00048  -0.00161   0.09885   0.00637   0.00247
  12        2PX         0.00083   0.00041  -0.00025  -0.00079  -0.00101
  13        2PY        -0.00026   0.00001   0.00143  -0.00124  -0.00098
  14        2PZ         0.00000   0.00000  -0.00000   0.00000  -0.00000
  15        3S         -0.00329   0.00501  -0.09216   0.02106  -0.00658
  16        3PX        -0.00157   0.00079   0.00399   0.00816   0.00468
  17        3PY        -0.00391   0.00240  -0.02054   0.01688  -0.00282
  18        3PZ         0.00000  -0.00000   0.00000  -0.00000   0.00000
  19 3   C  1S         -0.00037  -0.02080  -0.10959   0.96912   0.14696
  20        2S         -0.00010  -0.00171  -0.01512   0.09727   0.01035
  21        2PX        -0.00013   0.00009   0.00178  -0.00105   0.00054
  22        2PY        -0.00024  -0.00112   0.00035   0.00079  -0.00171
  23        2PZ         0.00000  -0.00000  -0.00000   0.00000  -0.00000
  24        3S          0.00276  -0.00838   0.04026  -0.08791   0.01838
  25        3PX        -0.00102   0.00615  -0.02200   0.01566  -0.00793
  26        3PY        -0.00066  -0.00154  -0.00164  -0.01103   0.01634
  27        3PZ        -0.00000   0.00000   0.00000  -0.00000   0.00000
  28 4   C  1S          0.98728   0.00489   0.00504   0.00039   0.00010
  29        2S          0.10026   0.00097   0.00099   0.00014   0.00017
  30        2PX         0.00018  -0.00062  -0.00058  -0.00009  -0.00002
  31        2PY         0.00014  -0.00068   0.00060  -0.00021   0.00014
  32        2PZ         0.00000   0.00000   0.00000   0.00000   0.00000
  33        3S         -0.09336  -0.01002  -0.01013   0.00047   0.00111
  34        3PX        -0.00562  -0.00434  -0.00455   0.00020   0.00029
  35        3PY        -0.00281  -0.00200   0.00319  -0.00282   0.00268
  36        3PZ         0.00001  -0.00000  -0.00000  -0.00000  -0.00000
  37 5   C  1S         -0.00062  -0.05341  -0.01442  -0.15253   0.97271
  38        2S         -0.00021  -0.00948  -0.00091  -0.01955   0.09655
  39        2PX        -0.00013   0.00173   0.00010   0.00091  -0.00094
  40        2PY         0.00024  -0.00047   0.00101   0.00189  -0.00021
  41        2PZ         0.00000  -0.00000  -0.00000   0.00000  -0.00000
  42        3S          0.00395   0.03525  -0.01037   0.04388  -0.08066
  43        3PX        -0.00191  -0.02102   0.00651  -0.01241   0.01391
  44        3PY         0.00089   0.00271   0.00258  -0.01845   0.00538
  45        3PZ        -0.00000  -0.00000   0.00000  -0.00000   0.00000
  46 6   C  1S         -0.01264  -0.03405   0.00030  -0.00272  -0.03664
  47        2S         -0.00498  -0.00781   0.00003  -0.00060  -0.00378
  48        2PX         0.00033  -0.00185  -0.00034   0.00029  -0.00127
  49        2PY         0.00158   0.00031  -0.00023   0.00024  -0.00008
  50        2PZ         0.00000   0.00000  -0.00000   0.00000  -0.00000
  51        3S          0.02863   0.03626   0.00114   0.00692  -0.00233
  52        3PX        -0.00488   0.01855   0.00073   0.00223   0.00056
  53        3PY        -0.01825  -0.00748  -0.00025  -0.00207   0.00461
  54        3PZ        -0.00001   0.00000   0.00000  -0.00000   0.00000
  55 7   C  1S         -0.00516   0.98494   0.01132   0.01406   0.05437
  56        2S         -0.00037   0.09899   0.00096   0.00212   0.00146
  57        2PX         0.00084  -0.00028   0.00044  -0.00066  -0.00100
  58        2PY         0.00019  -0.00131  -0.00008   0.00057   0.00158
  59        2PZ         0.00000  -0.00000   0.00000   0.00000   0.00000
  60        3S         -0.00360  -0.08993   0.00318  -0.01311   0.02318
  61        3PX        -0.00234   0.00407   0.00112   0.00175   0.00880
  62        3PY         0.00511   0.01914  -0.00262   0.00760  -0.01665
  63        3PZ         0.00000   0.00000  -0.00000   0.00000  -0.00000
  64 8   H  1S         -0.00035  -0.00005   0.00005  -0.00028  -0.00002
  65        2S          0.00143   0.00029   0.00298  -0.00005   0.00002
  66 9   H  1S         -0.00030   0.00004  -0.00136  -0.00011  -0.00037
  67        2S         -0.00014   0.00028   0.00662   0.00459   0.00048
  68 10  H  1S         -0.00008  -0.00031   0.00018  -0.00135  -0.00023
  69        2S          0.00007  -0.00072   0.00325   0.00693   0.00522
  70 11  H  1S         -0.00006   0.00008  -0.00031   0.00015  -0.00136
  71        2S          0.00024   0.00361  -0.00083   0.00290   0.00796
  72 12  H  1S         -0.00048  -0.00002  -0.00001   0.00001  -0.00027
  73        2S          0.00198   0.00327   0.00008   0.00038  -0.00022
  74 13  H  1S         -0.00040  -0.00136   0.00006  -0.00035  -0.00013
  75        2S         -0.00043   0.00699   0.00058  -0.00067   0.00420
  76 14  C  1S         -0.00137  -0.00091  -0.00106  -0.00021  -0.00023
  77        2S         -0.00173  -0.00077  -0.00089  -0.00016  -0.00017
  78        2PX        -0.00026  -0.00016  -0.00019  -0.00003  -0.00004
  79        2PY        -0.00044  -0.00019   0.00028  -0.00007   0.00007
  80        2PZ         0.00002  -0.00000  -0.00000  -0.00000  -0.00000
  81        3S          0.01544   0.00118   0.00136   0.00044   0.00042
  82        3PX         0.01002   0.00108   0.00123   0.00024   0.00023
  83        3PY         0.00309   0.00173  -0.00256   0.00085  -0.00084
  84        3PZ        -0.00009   0.00001   0.00001   0.00000   0.00000
  85 15  H  1S         -0.00107  -0.00000  -0.00037   0.00004  -0.00008
  86        2S          0.00234   0.00027  -0.00032   0.00009  -0.00013
  87 16  H  1S         -0.00108  -0.00001  -0.00036   0.00004  -0.00008
  88        2S          0.00246   0.00025  -0.00032   0.00009  -0.00013
  89 17  H  1S         -0.00089  -0.00043   0.00018  -0.00015   0.00011
  90        2S         -0.00176  -0.00016   0.00101  -0.00020   0.00021
                           6         7         8         9        10
                           O         O         O         O         O
     Eigenvalues --   -11.40517 -11.40387 -11.33875  -1.35726  -1.27810
   1 1   C  1S          0.98224   0.06794   0.00158  -0.09445  -0.05648
   2        2S          0.09835   0.00662  -0.00068   0.10780   0.06333
   3        2PX         0.00063   0.00038   0.00108   0.02274  -0.05307
   4        2PY         0.00096  -0.00102  -0.00063   0.04229   0.05304
   5        2PZ        -0.00000   0.00000  -0.00000  -0.00000   0.00000
   6        3S         -0.08858  -0.01087  -0.00093   0.18614   0.12853
   7        3PX        -0.00983  -0.00718  -0.00711   0.01491   0.01128
   8        3PY        -0.01571  -0.00310   0.00655   0.00611   0.00060
   9        3PZ         0.00000  -0.00000   0.00002  -0.00001  -0.00002
  10 2   C  1S          0.05150   0.00409   0.00091  -0.08566   0.04425
  11        2S          0.00064   0.00001  -0.00075   0.09899  -0.04909
  12        2PX         0.00144  -0.00031   0.00028  -0.01443  -0.06338
  13        2PY        -0.00113  -0.00022  -0.00021   0.04503  -0.03041
  14        2PZ         0.00000  -0.00000   0.00000  -0.00001   0.00001
  15        3S          0.02806   0.00562   0.00557   0.15471  -0.10640
  16        3PX        -0.01386  -0.00295  -0.00665   0.00467   0.00761
  17        3PY         0.01446   0.00152   0.00069   0.00301  -0.00600
  18        3PZ        -0.00000   0.00000  -0.00001   0.00000   0.00001
  19 3   C  1S          0.03655   0.00995   0.00016  -0.08195   0.11348
  20        2S          0.00352   0.00058  -0.00010   0.09407  -0.12770
  21        2PX         0.00104   0.00035   0.00011  -0.04166   0.02281
  22        2PY         0.00062   0.00023   0.00014   0.01967  -0.04437
  23        2PZ        -0.00000   0.00000  -0.00000   0.00001  -0.00001
  24        3S         -0.00950   0.00422   0.00175   0.15558  -0.24833
  25        3PX         0.00409  -0.00131  -0.00038  -0.00615   0.00651
  26        3PY        -0.00396   0.00226  -0.00234   0.00417  -0.00095
  27        3PZ        -0.00000   0.00000   0.00000   0.00000  -0.00001
  28 4   C  1S          0.01231   0.01312   0.00108  -0.10711  -0.12462
  29        2S         -0.00203  -0.00252  -0.00146   0.11972   0.13786
  30        2PX        -0.00161  -0.00185   0.00053   0.03745  -0.00808
  31        2PY         0.00162  -0.00137  -0.00028  -0.00102  -0.00223
  32        2PZ        -0.00000  -0.00000   0.00000   0.00002   0.00003
  33        3S          0.02339   0.02745   0.01406   0.21929   0.28126
  34        3PX         0.01964   0.02288  -0.01587  -0.01468  -0.01054
  35        3PY        -0.01702   0.01427   0.00374  -0.00231  -0.00573
  36        3PZ         0.00000   0.00000  -0.00001   0.00002   0.00003
  37 5   C  1S          0.02942   0.03632   0.00023  -0.08168   0.11439
  38        2S          0.00252   0.00362  -0.00014   0.09371  -0.12857
  39        2PX         0.00018   0.00102   0.00013  -0.04170   0.02433
  40        2PY        -0.00013  -0.00070  -0.00010  -0.01938   0.04289
  41        2PZ         0.00000   0.00000  -0.00000   0.00000   0.00000
  42        3S          0.00343  -0.01004   0.00169   0.15489  -0.25007
  43        3PX        -0.00153   0.00450   0.00009  -0.00641   0.00614
  44        3PY        -0.00248   0.00409   0.00030  -0.00302   0.00347
  45        3PZ        -0.00000   0.00000   0.00000  -0.00000  -0.00000
  46 6   C  1S         -0.06957   0.98348   0.00200  -0.09343  -0.05340
  47        2S         -0.00718   0.09854  -0.00075   0.10662   0.05980
  48        2PX         0.00028   0.00075   0.00094   0.02236  -0.05368
  49        2PY         0.00115  -0.00083   0.00046  -0.04259  -0.05216
  50        2PZ         0.00000   0.00000  -0.00000   0.00001   0.00000
  51        3S          0.00163  -0.09007  -0.00167   0.18460   0.12341
  52        3PX        -0.00604  -0.01124  -0.00231   0.01245   0.00482
  53        3PY         0.00076   0.01616  -0.00229  -0.00816  -0.00541
  54        3PZ        -0.00000  -0.00000   0.00002  -0.00001  -0.00002
  55 7   C  1S         -0.00019   0.03529   0.00082  -0.08511   0.04683
  56        2S          0.00009  -0.00099  -0.00059   0.09834  -0.05227
  57        2PX        -0.00052   0.00141   0.00026  -0.01467  -0.06204
  58        2PY         0.00011   0.00111   0.00027  -0.04460   0.03182
  59        2PZ        -0.00000   0.00000   0.00000  -0.00001   0.00000
  60        3S          0.00236   0.03039   0.00277   0.15500  -0.10850
  61        3PX        -0.00101  -0.01470  -0.00315   0.00287   0.00325
  62        3PY         0.00014  -0.01469  -0.00132  -0.00278   0.00647
  63        3PZ         0.00000  -0.00000  -0.00001   0.00001   0.00001
  64 8   H  1S         -0.00137  -0.00051  -0.00037   0.03327   0.02794
  65        2S          0.00726  -0.00048   0.00123  -0.00462   0.00333
  66 9   H  1S         -0.00003  -0.00012  -0.00015   0.02860  -0.01793
  67        2S          0.00472   0.00058   0.00079  -0.00896  -0.00030
  68 10  H  1S         -0.00043  -0.00005  -0.00024   0.02718  -0.04657
  69        2S          0.00010   0.00075  -0.00010  -0.00728   0.00235
  70 11  H  1S         -0.00004  -0.00044  -0.00017   0.02702  -0.04692
  71        2S          0.00093  -0.00001   0.00004  -0.00734   0.00216
  72 12  H  1S         -0.00035  -0.00147  -0.00003   0.03256   0.02578
  73        2S         -0.00141   0.00713  -0.00029  -0.00412   0.00443
  74 13  H  1S         -0.00013  -0.00002  -0.00003   0.02839  -0.01915
  75        2S          0.00004   0.00461   0.00097  -0.00896  -0.00029
  76 14  C  1S         -0.00173  -0.00243   0.98756  -0.03842  -0.07535
  77        2S         -0.00130  -0.00170   0.10195   0.04190   0.07438
  78        2PX        -0.00014  -0.00009   0.00068   0.03238   0.04879
  79        2PY         0.00022  -0.00027  -0.00034   0.00023  -0.00013
  80        2PZ         0.00000   0.00000   0.00001  -0.00001  -0.00000
  81        3S          0.00831   0.01041  -0.08180   0.06307   0.17655
  82        3PX         0.00440   0.00475  -0.00731  -0.01015   0.00499
  83        3PY         0.00211  -0.00130   0.00077  -0.00418  -0.00567
  84        3PZ        -0.00001  -0.00001  -0.00003   0.00013   0.00019
  85 15  H  1S         -0.00034  -0.00045   0.00071   0.01530   0.03106
  86        2S          0.00038  -0.00013   0.01334  -0.00657  -0.00787
  87 16  H  1S         -0.00035  -0.00044   0.00071   0.01531   0.03109
  88        2S          0.00038  -0.00013   0.01338  -0.00673  -0.00810
  89 17  H  1S         -0.00048  -0.00021   0.00047   0.01472   0.03017
  90        2S         -0.00024  -0.00038   0.01267  -0.00053  -0.00040
                          11        12        13        14        15
                           O         O         O         O         O
     Eigenvalues --    -1.25946  -1.15074  -1.09973  -1.04845  -0.93504
   1 1   C  1S         -0.10002   0.06208  -0.10531   0.02231   0.02317
   2        2S          0.11185  -0.06683   0.11336  -0.02379  -0.02408
   3        2PX         0.06072  -0.08480  -0.04401   0.07552   0.18853
   4        2PY        -0.01321   0.03270   0.00549  -0.11384  -0.11288
   5        2PZ        -0.00000   0.00001  -0.00000   0.00002   0.00002
   6        3S          0.21837  -0.16369   0.29774  -0.06648  -0.07652
   7        3PX         0.00717  -0.01163  -0.00564   0.02243   0.07193
   8        3PY        -0.00061  -0.00782   0.00217  -0.05196  -0.04130
   9        3PZ         0.00000  -0.00004  -0.00000  -0.00002   0.00002
  10 2   C  1S         -0.12527   0.06167   0.04762  -0.08311  -0.05268
  11        2S          0.14030  -0.06627  -0.05154   0.08868   0.05374
  12        2PX        -0.02758   0.08672  -0.14673   0.00267  -0.14744
  13        2PY         0.03038   0.01572  -0.02354  -0.04576  -0.07085
  14        2PZ        -0.00001  -0.00001   0.00001   0.00000   0.00003
  15        3S          0.28122  -0.17584  -0.13778   0.25818   0.20796
  16        3PX        -0.00233   0.03148  -0.03941   0.00812  -0.07488
  17        3PY         0.00733  -0.00298  -0.00772  -0.01394  -0.02746
  18        3PZ        -0.00000   0.00002   0.00001   0.00001   0.00001
  19 3   C  1S         -0.05570  -0.07265   0.08613   0.03584   0.07035
  20        2S          0.06242   0.07930  -0.09268  -0.03842  -0.07142
  21        2PX        -0.04817   0.03968   0.03080  -0.05950  -0.02525
  22        2PY        -0.06083   0.07362   0.09778  -0.11043   0.07897
  23        2PZ         0.00001   0.00000  -0.00001   0.00001   0.00001
  24        3S          0.12390   0.19073  -0.25157  -0.11537  -0.27163
  25        3PX        -0.00451   0.00687   0.01539  -0.01382  -0.00402
  26        3PY        -0.00233   0.02106   0.02494  -0.03585   0.02903
  27        3PZ         0.00000  -0.00000  -0.00001  -0.00000   0.00001
  28 4   C  1S          0.00204  -0.04549   0.00233   0.07974   0.00049
  29        2S         -0.00230   0.04865  -0.00278  -0.08677   0.00011
  30        2PX        -0.00118  -0.12673  -0.00082  -0.13726   0.00000
  31        2PY        -0.08616  -0.00304  -0.16968   0.00137   0.23803
  32        2PZ         0.00000   0.00002   0.00001  -0.00000  -0.00001
  33        3S         -0.00529   0.12216  -0.00617  -0.25021  -0.00470
  34        3PX        -0.00088  -0.01629  -0.00201  -0.04406   0.00306
  35        3PY        -0.01662  -0.01295  -0.06652  -0.00887   0.15469
  36        3PZ         0.00000   0.00004   0.00000   0.00000  -0.00001
  37 5   C  1S          0.05321  -0.07469  -0.08373   0.03808  -0.07090
  38        2S         -0.05957   0.08149   0.09000  -0.04071   0.07190
  39        2PX         0.04712   0.03737  -0.03214  -0.05756   0.02824
  40        2PY        -0.06246  -0.07165   0.10199   0.10831   0.07460
  41        2PZ        -0.00000  -0.00001   0.00001   0.00001   0.00001
  42        3S         -0.11786   0.19644   0.24420  -0.12189   0.27373
  43        3PX         0.00433   0.00466  -0.01571  -0.01406   0.00539
  44        3PY        -0.00216  -0.01544   0.02594   0.03978   0.02742
  45        3PZ        -0.00000  -0.00001   0.00000   0.00000   0.00000
  46 6   C  1S          0.10219   0.06440   0.10460   0.01977  -0.02424
  47        2S         -0.11432  -0.06974  -0.11274  -0.02148   0.02522
  48        2PX        -0.05970  -0.08114   0.04829   0.07817  -0.18969
  49        2PY        -0.01022  -0.02976   0.00913   0.11426  -0.10657
  50        2PZ        -0.00001   0.00000   0.00000   0.00002  -0.00003
  51        3S         -0.22295  -0.16469  -0.29404  -0.05530   0.07840
  52        3PX        -0.00834  -0.02525   0.00686   0.01057  -0.07589
  53        3PY        -0.00156  -0.00243   0.00245   0.04265  -0.03822
  54        3PZ        -0.00001  -0.00004  -0.00000  -0.00002  -0.00002
  55 7   C  1S          0.12481   0.05913  -0.05131  -0.08289   0.05345
  56        2S         -0.13999  -0.06401   0.05559   0.08811  -0.05477
  57        2PX         0.02981   0.08899   0.14431  -0.00137   0.14380
  58        2PY         0.02933  -0.01779  -0.02427   0.04680  -0.07238
  59        2PZ         0.00001   0.00000   0.00000   0.00000  -0.00001
  60        3S         -0.27944  -0.16191   0.14831   0.26412  -0.20861
  61        3PX         0.00170   0.02283   0.03906  -0.00173   0.07165
  62        3PY         0.00731   0.00388  -0.00793   0.01569  -0.02829
  63        3PZ         0.00001   0.00002  -0.00000   0.00001  -0.00000
  64 8   H  1S          0.04441  -0.02449   0.07629   0.00577  -0.03455
  65        2S          0.00075  -0.00337   0.02312   0.00406  -0.01810
  66 9   H  1S          0.05526  -0.03501  -0.03349   0.07560   0.05954
  67        2S          0.00056  -0.00923  -0.00951   0.02627   0.02841
  68 10  H  1S          0.02454   0.04459  -0.06085  -0.02558  -0.08383
  69        2S          0.00016   0.01013  -0.01849  -0.00902  -0.04083
  70 11  H  1S         -0.02342   0.04561   0.05899  -0.02745   0.08413
  71        2S         -0.00019   0.01012   0.01799  -0.00999   0.04089
  72 12  H  1S         -0.04543  -0.02743  -0.07547   0.00714   0.03648
  73        2S         -0.00006  -0.00130  -0.02263   0.00717   0.01916
  74 13  H  1S         -0.05515  -0.03387   0.03611   0.07527  -0.06029
  75        2S         -0.00058  -0.00924   0.01023   0.02594  -0.02871
  76 14  C  1S          0.00050  -0.13734   0.00096  -0.12369  -0.00196
  77        2S         -0.00078   0.12800  -0.00147   0.11341   0.00242
  78        2PX        -0.00030   0.03275  -0.00011  -0.04249  -0.00296
  79        2PY        -0.01025  -0.00164  -0.03043  -0.00133   0.07152
  80        2PZ         0.00000   0.00005  -0.00000   0.00006  -0.00000
  81        3S          0.00008   0.41107  -0.00129   0.41644   0.00675
  82        3PX        -0.00076   0.02450  -0.00102   0.00121   0.00013
  83        3PY         0.00002  -0.00486  -0.01428  -0.00213   0.03845
  84        3PZ        -0.00000   0.00020   0.00000   0.00011  -0.00001
  85 15  H  1S          0.00198   0.06821   0.00666   0.07827  -0.01764
  86        2S          0.00138   0.00185   0.00289   0.02006  -0.01019
  87 16  H  1S          0.00189   0.06824   0.00637   0.07823  -0.01686
  88        2S          0.00129   0.00167   0.00272   0.02001  -0.00967
  89 17  H  1S         -0.00430   0.06700  -0.01424   0.07997   0.03886
  90        2S         -0.00488   0.00572  -0.00897   0.02047   0.02511
                          16        17        18        19        20
                           O         O         O         O         O
     Eigenvalues --    -0.92180  -0.89245  -0.82009  -0.79817  -0.75383
   1 1   C  1S          0.05904   0.00720  -0.01395   0.00156  -0.03119
   2        2S         -0.05634  -0.01076   0.02025   0.00342   0.03060
   3        2PX        -0.00328  -0.12147   0.13164   0.14411   0.05517
   4        2PY         0.16240  -0.01644   0.12610   0.13042  -0.14138
   5        2PZ        -0.00001  -0.00001  -0.00001   0.00005  -0.00016
   6        3S         -0.24568  -0.02777   0.01207  -0.03351   0.13144
   7        3PX         0.00734  -0.07186   0.09592   0.11716  -0.01900
   8        3PY         0.07484  -0.02884   0.09835   0.12271  -0.11487
   9        3PZ        -0.00000  -0.00000   0.00001   0.00004  -0.00011
  10 2   C  1S         -0.03395  -0.01217  -0.00631  -0.00516   0.04121
  11        2S          0.03636   0.00604   0.01393   0.00560  -0.04374
  12        2PX         0.16109   0.11399  -0.06051  -0.10191  -0.11602
  13        2PY         0.06875  -0.14698   0.23352  -0.04034   0.07172
  14        2PZ        -0.00001   0.00000  -0.00002   0.00004  -0.00014
  15        3S          0.12971   0.07230  -0.02402   0.01900  -0.13875
  16        3PX         0.07551   0.06254  -0.04397  -0.05556  -0.10021
  17        3PY         0.05101  -0.09661   0.18191  -0.03467   0.12321
  18        3PZ        -0.00001   0.00000  -0.00002   0.00004  -0.00014
  19 3   C  1S          0.01890  -0.00270  -0.00943   0.01299  -0.04359
  20        2S         -0.01696  -0.00354   0.01276  -0.01930   0.04494
  21        2PX        -0.15970   0.12426  -0.10261   0.17901   0.15121
  22        2PY        -0.15824  -0.16506   0.00349  -0.05831  -0.04318
  23        2PZ         0.00002  -0.00002   0.00001  -0.00002  -0.00014
  24        3S         -0.08157   0.03294   0.01712  -0.00667   0.16119
  25        3PX        -0.08138   0.09222  -0.07198   0.13919   0.19108
  26        3PY        -0.06909  -0.09780   0.01262  -0.05035  -0.08315
  27        3PZ         0.00001  -0.00001   0.00002  -0.00002  -0.00012
  28 4   C  1S         -0.06569  -0.04900  -0.00026   0.00222   0.00415
  29        2S          0.06829   0.04738   0.00062   0.00432  -0.00284
  30        2PX         0.04112  -0.05372  -0.00014   0.18519   0.01640
  31        2PY         0.00250   0.00150  -0.05026  -0.00082   0.16067
  32        2PZ         0.00003  -0.00001  -0.00000   0.00014  -0.00031
  33        3S          0.26260   0.19901  -0.00090  -0.05838  -0.02556
  34        3PX         0.04332  -0.03140   0.00103   0.12424   0.02541
  35        3PY        -0.00149   0.00251  -0.03099  -0.00338   0.14314
  36        3PZ         0.00006   0.00001   0.00000   0.00012  -0.00027
  37 5   C  1S          0.01712  -0.00318   0.00937   0.01246   0.04286
  38        2S         -0.01520  -0.00312  -0.01275  -0.01873  -0.04440
  39        2PX        -0.15646   0.12553   0.10284   0.17972  -0.15583
  40        2PY         0.16185   0.16378   0.00390   0.05650  -0.00713
  41        2PZ         0.00003   0.00001   0.00000   0.00001  -0.00010
  42        3S         -0.07386   0.03560  -0.01571  -0.00476  -0.15401
  43        3PX        -0.08016   0.09227   0.07231   0.13963  -0.18925
  44        3PY         0.07010   0.09461   0.01334   0.04975  -0.05478
  45        3PZ         0.00001   0.00001  -0.00000   0.00001  -0.00010
  46 6   C  1S          0.05814   0.00710   0.01392   0.00119   0.02578
  47        2S         -0.05559  -0.01043  -0.02013   0.00345  -0.02483
  48        2PX        -0.01043  -0.12204  -0.13093   0.14027  -0.07245
  49        2PY        -0.16468   0.01594   0.12710  -0.13171  -0.14004
  50        2PZ         0.00001  -0.00001  -0.00001   0.00008  -0.00021
  51        3S         -0.23887  -0.02740  -0.01401  -0.02995  -0.12164
  52        3PX         0.00318  -0.06728  -0.09842   0.10976  -0.01818
  53        3PY        -0.07720   0.03027   0.09765  -0.12495  -0.10968
  54        3PZ        -0.00000  -0.00001  -0.00002   0.00006  -0.00021
  55 7   C  1S         -0.03247  -0.01182   0.00658  -0.00473  -0.03751
  56        2S          0.03499   0.00590  -0.01445   0.00507   0.03918
  57        2PX         0.16328   0.11729   0.06556  -0.10042   0.13451
  58        2PY        -0.07311   0.14404   0.23300   0.04146   0.04889
  59        2PZ         0.00001   0.00002   0.00003   0.00003  -0.00012
  60        3S          0.12370   0.06800   0.02551   0.01945   0.13752
  61        3PX         0.07672   0.06721   0.04512  -0.05636   0.09982
  62        3PY        -0.05236   0.09561   0.18199   0.03483   0.09629
  63        3PZ         0.00000   0.00001   0.00003   0.00003  -0.00009
  64 8   H  1S         -0.11192   0.04013  -0.09829  -0.11988   0.07810
  65        2S         -0.05919   0.02134  -0.06453  -0.07166   0.04132
  66 9   H  1S          0.01016   0.10054  -0.14008   0.01583  -0.10499
  67        2S          0.00443   0.05735  -0.08763   0.00732  -0.05342
  68 10  H  1S         -0.05208   0.10146  -0.04794   0.10413   0.14708
  69        2S         -0.02705   0.05644  -0.03121   0.06847   0.07814
  70 11  H  1S         -0.04973   0.10147   0.04846   0.10466  -0.13890
  71        2S         -0.02580   0.05682   0.03148   0.06876  -0.07371
  72 12  H  1S         -0.11090   0.03948   0.09835  -0.11840  -0.06500
  73        2S         -0.05880   0.02084   0.06557  -0.07158  -0.03313
  74 13  H  1S          0.00823   0.09974   0.14025   0.01535   0.08981
  75        2S          0.00328   0.05656   0.08758   0.00727   0.04560
  76 14  C  1S          0.01271   0.04265   0.00017  -0.02821  -0.00111
  77        2S         -0.01064  -0.03576   0.00002   0.02023   0.00077
  78        2PX         0.04088   0.09772  -0.00057  -0.14854  -0.02142
  79        2PY        -0.00103   0.00207   0.03334  -0.00698   0.13727
  80        2PZ         0.00010  -0.00008   0.00000   0.00042  -0.00056
  81        3S         -0.05311  -0.17740  -0.00056   0.14437   0.01500
  82        3PX         0.01167   0.04241  -0.00012  -0.08411  -0.00980
  83        3PY         0.00151   0.00131   0.03407  -0.00265   0.10845
  84        3PZ         0.00002  -0.00006  -0.00001   0.00026  -0.00051
  85 15  H  1S         -0.01584  -0.04710  -0.01156   0.05275  -0.03785
  86        2S         -0.01157  -0.02595  -0.00819   0.03645  -0.02721
  87 16  H  1S         -0.01564  -0.04709  -0.01107   0.05307  -0.03672
  88        2S         -0.01143  -0.02598  -0.00782   0.03681  -0.02632
  89 17  H  1S         -0.02045  -0.04757   0.02300   0.04747   0.08907
  90        2S         -0.01649  -0.02455   0.01678   0.02717   0.06747
                          21        22        23        24        25
                           O         O         O         O         O
     Eigenvalues --    -0.74655  -0.73873  -0.69157  -0.68801  -0.68433
   1 1   C  1S          0.00045  -0.03636  -0.01737  -0.00344   0.00387
   2        2S         -0.00048   0.03906   0.01758   0.00932  -0.00259
   3        2PX         0.00170  -0.10886  -0.06411   0.16837  -0.07382
   4        2PY        -0.00032  -0.01566   0.17813   0.10115   0.07025
   5        2PZ         0.11130   0.00188   0.00017  -0.00052   0.00158
   6        3S         -0.00104   0.10991   0.05370  -0.03730  -0.03577
   7        3PX         0.00285  -0.15208  -0.00738   0.18272  -0.07462
   8        3PY         0.00035  -0.07657   0.17164   0.11750   0.03929
   9        3PZ         0.10475   0.00181   0.00030  -0.00055   0.00146
  10 2   C  1S         -0.00023   0.02075   0.00426  -0.00035   0.01109
  11        2S          0.00028  -0.02247  -0.00647   0.00051  -0.01603
  12        2PX        -0.00201   0.11424   0.03008  -0.17138   0.04287
  13        2PY        -0.00170   0.13225  -0.13797  -0.03125  -0.14734
  14        2PZ         0.07438   0.00128   0.00022  -0.00062   0.00205
  15        3S          0.00009  -0.05647  -0.00565   0.00020   0.00871
  16        3PX        -0.00046   0.04335   0.03058  -0.10338   0.03302
  17        3PY        -0.00196   0.16042  -0.17893  -0.00568  -0.15611
  18        3PZ         0.06551   0.00113   0.00016  -0.00058   0.00204
  19 3   C  1S         -0.00006  -0.00187   0.01143   0.00703  -0.00685
  20        2S          0.00009   0.00069  -0.01440  -0.00944   0.00918
  21        2PX         0.00085  -0.04097   0.04729   0.19439   0.00511
  22        2PY         0.00307  -0.21281   0.05699  -0.04173   0.13596
  23        2PZ         0.05450   0.00100   0.00017  -0.00074   0.00230
  24        3S         -0.00010   0.01769  -0.01362  -0.01194   0.00503
  25        3PX         0.00036  -0.00030   0.00987   0.22809  -0.00878
  26        3PY         0.00212  -0.14757   0.04408  -0.07337   0.09394
  27        3PZ         0.04960   0.00092   0.00019  -0.00073   0.00222
  28 4   C  1S         -0.00080   0.05418  -0.00248   0.00026   0.00431
  29        2S          0.00067  -0.05485   0.00652  -0.00340  -0.00125
  30        2PX        -0.00276   0.15591   0.05432  -0.08793   0.23436
  31        2PY         0.00064  -0.02274  -0.18672  -0.09649   0.01012
  32        2PZ         0.17454   0.00284   0.00010  -0.00032   0.00103
  33        3S          0.00409  -0.21327  -0.02385   0.02814  -0.05467
  34        3PX        -0.00414   0.23903   0.06121  -0.10173   0.27514
  35        3PY         0.00040  -0.00841  -0.14099  -0.09410   0.00656
  36        3PZ         0.15263   0.00247   0.00011  -0.00034   0.00110
  37 5   C  1S          0.00022  -0.01005  -0.01326  -0.00321  -0.00469
  38        2S         -0.00021   0.00959   0.01696   0.00417   0.00665
  39        2PX        -0.00021  -0.00873  -0.06819  -0.15973  -0.10151
  40        2PY        -0.00323   0.21673  -0.03883   0.07652  -0.12596
  41        2PZ         0.05390   0.00102   0.00013  -0.00067   0.00230
  42        3S         -0.00108   0.04253   0.02040   0.00637   0.00296
  43        3PX        -0.00101   0.04424  -0.05276  -0.16877  -0.14380
  44        3PY        -0.00255   0.15967  -0.02605   0.01917  -0.11912
  45        3PZ         0.04760   0.00091   0.00010  -0.00064   0.00227
  46 6   C  1S          0.00060  -0.03864   0.02309   0.00067  -0.00607
  47        2S         -0.00064   0.04195  -0.02448  -0.00557   0.00396
  48        2PX         0.00110  -0.08344   0.01248  -0.07417  -0.18885
  49        2PY        -0.00072   0.05074   0.13227   0.15733  -0.04885
  50        2PZ         0.10857   0.00182   0.00005  -0.00047   0.00164
  51        3S         -0.00156   0.10993  -0.08555   0.05636   0.03444
  52        3PX         0.00261  -0.13778  -0.06309  -0.08324  -0.15780
  53        3PY        -0.00134   0.11424   0.11879   0.15867   0.00145
  54        3PZ         0.09569   0.00165  -0.00008  -0.00042   0.00169
  55 7   C  1S         -0.00047   0.02677  -0.00206  -0.00614   0.01133
  56        2S          0.00053  -0.02899   0.00060   0.01017  -0.01501
  57        2PX        -0.00106   0.08094   0.01030   0.10030   0.15466
  58        2PY         0.00218  -0.14958  -0.04596  -0.14942   0.12422
  59        2PZ         0.07175   0.00125   0.00007  -0.00061   0.00210
  60        3S          0.00096  -0.07695   0.03844  -0.01882  -0.01552
  61        3PX         0.00023   0.01933  -0.01971   0.06059   0.11580
  62        3PY         0.00282  -0.19244  -0.06649  -0.14373   0.15918
  63        3PZ         0.06610   0.00114   0.00012  -0.00061   0.00201
  64 8   H  1S         -0.00109   0.09439  -0.06728  -0.13184  -0.00316
  65        2S         -0.00060   0.04708  -0.04854  -0.09756  -0.00045
  66 9   H  1S          0.00109  -0.09346   0.10136  -0.00404   0.10438
  67        2S          0.00057  -0.05122   0.06741  -0.00040   0.07980
  68 10  H  1S         -0.00034   0.04171   0.00013   0.13820  -0.03496
  69        2S         -0.00022   0.02567   0.00834   0.09475  -0.02875
  70 11  H  1S         -0.00129   0.06933  -0.04453  -0.08018  -0.10596
  71        2S         -0.00072   0.03964  -0.03969  -0.05338  -0.07281
  72 12  H  1S         -0.00154   0.10549   0.06340   0.12060   0.06139
  73        2S         -0.00081   0.05176   0.05657   0.08435   0.04065
  74 13  H  1S          0.00177  -0.11512  -0.03014  -0.08593   0.10654
  75        2S          0.00092  -0.06184  -0.01711  -0.06515   0.07721
  76 14  C  1S          0.00008  -0.00053   0.00129  -0.00202   0.00824
  77        2S          0.00004  -0.00773  -0.00214   0.00449  -0.01646
  78        2PX         0.00345  -0.19411  -0.05100   0.07999  -0.20950
  79        2PY         0.00023   0.00562   0.28106  -0.14019  -0.13998
  80        2PZ         0.30325   0.00452  -0.00007   0.00054  -0.00191
  81        3S         -0.00209   0.10276   0.01548  -0.02655   0.05819
  82        3PX         0.00155  -0.08445  -0.03080   0.04583  -0.11513
  83        3PY         0.00012   0.00404   0.28763  -0.12430  -0.13504
  84        3PZ         0.26105   0.00394  -0.00017   0.00061  -0.00197
  85 15  H  1S         -0.16374   0.03976  -0.08955   0.02942   0.09355
  86        2S         -0.13042   0.04290  -0.07621   0.01992   0.09167
  87 16  H  1S          0.16440   0.04447  -0.08555   0.02826   0.08902
  88        2S          0.13061   0.04674  -0.07260   0.01889   0.08790
  89 17  H  1S         -0.00313   0.05837   0.20625  -0.10869  -0.04157
  90        2S         -0.00257   0.05993   0.17706  -0.09091  -0.02527
                          26        27        28        29        30
                           O         O         O         V         V
     Eigenvalues --    -0.68021  -0.57181  -0.55269  -0.14318  -0.13912
   1 1   C  1S         -0.00002   0.00001   0.00003  -0.00001  -0.00003
   2        2S          0.00003  -0.00002  -0.00004   0.00004   0.00003
   3        2PX        -0.00181   0.00003   0.00011   0.00003  -0.00008
   4        2PY         0.00049  -0.00001   0.00008   0.00005  -0.00006
   5        2PZ        -0.11816   0.19452   0.17670  -0.22352  -0.10874
   6        3S          0.00010   0.00008  -0.00022  -0.00053  -0.00012
   7        3PX        -0.00147  -0.00007  -0.00015   0.00040   0.00028
   8        3PY        -0.00033   0.00010   0.00037  -0.00032  -0.00064
   9        3PZ        -0.11228   0.21762   0.19733  -0.40529  -0.19060
  10 2   C  1S          0.00018  -0.00000  -0.00003  -0.00000   0.00002
  11        2S         -0.00023   0.00001   0.00002  -0.00000  -0.00002
  12        2PX         0.00134  -0.00001  -0.00006  -0.00001   0.00008
  13        2PY        -0.00169   0.00006   0.00001  -0.00001   0.00002
  14        2PZ        -0.15948   0.24347  -0.01816  -0.03747   0.25036
  15        3S         -0.00031   0.00003   0.00030  -0.00002  -0.00023
  16        3PX         0.00118  -0.00005  -0.00025   0.00020   0.00035
  17        3PY        -0.00185   0.00004  -0.00003   0.00015   0.00021
  18        3PZ        -0.15838   0.27022  -0.01657  -0.06522   0.44793
  19 3   C  1S         -0.00011  -0.00001   0.00001   0.00001  -0.00001
  20        2S          0.00016   0.00000  -0.00001   0.00000   0.00001
  21        2PX        -0.00073   0.00002  -0.00001   0.00006  -0.00002
  22        2PY         0.00166  -0.00002   0.00003  -0.00000  -0.00002
  23        2PZ        -0.18441   0.10955  -0.20700   0.24957  -0.00602
  24        3S          0.00003   0.00005   0.00004  -0.00016  -0.00008
  25        3PX        -0.00100   0.00001  -0.00002   0.00023   0.00009
  26        3PY         0.00140  -0.00003  -0.00003   0.00008   0.00008
  27        3PZ        -0.17973   0.12019  -0.23646   0.44563  -0.01040
  28 4   C  1S          0.00012  -0.00000  -0.00001   0.00000  -0.00001
  29        2S         -0.00015  -0.00000   0.00005   0.00002  -0.00003
  30        2PX         0.00346   0.00000  -0.00015  -0.00003   0.00005
  31        2PY         0.00031   0.00004   0.00001   0.00004   0.00001
  32        2PZ        -0.05980  -0.00954   0.22506   0.15664  -0.21886
  33        3S         -0.00046   0.00002  -0.00037  -0.00022   0.00032
  34        3PX         0.00415   0.00001  -0.00027  -0.00016   0.00016
  35        3PY         0.00032   0.00032   0.00000  -0.00128  -0.00095
  36        3PZ        -0.06979  -0.00922   0.26488   0.26171  -0.38720
  37 5   C  1S         -0.00008   0.00001   0.00000   0.00000  -0.00001
  38        2S          0.00011  -0.00001  -0.00001  -0.00001  -0.00000
  39        2PX        -0.00078  -0.00000   0.00003   0.00000  -0.00003
  40        2PY        -0.00163   0.00002   0.00000  -0.00001   0.00005
  41        2PZ        -0.18516  -0.09722  -0.21510  -0.07321  -0.23884
  42        3S         -0.00003  -0.00008   0.00008   0.00013   0.00013
  43        3PX        -0.00118   0.00001   0.00002  -0.00013  -0.00016
  44        3PY        -0.00145  -0.00000   0.00006   0.00010   0.00016
  45        3PZ        -0.18178  -0.10682  -0.24510  -0.13058  -0.43045
  46 6   C  1S         -0.00013  -0.00001   0.00003   0.00003  -0.00001
  47        2S          0.00013   0.00002  -0.00004  -0.00004  -0.00002
  48        2PX        -0.00224  -0.00001   0.00010   0.00005  -0.00006
  49        2PY        -0.00092  -0.00002  -0.00005  -0.00002   0.00008
  50        2PZ        -0.12024  -0.20388   0.16665   0.16712   0.17725
  51        3S          0.00048  -0.00006  -0.00019   0.00035   0.00050
  52        3PX        -0.00155   0.00011  -0.00016  -0.00040  -0.00029
  53        3PY         0.00006   0.00011  -0.00033  -0.00068  -0.00010
  54        3PZ        -0.11895  -0.22841   0.18990   0.30468   0.32304
  55 7   C  1S          0.00021   0.00000  -0.00002  -0.00002   0.00001
  56        2S         -0.00026  -0.00001   0.00001   0.00002   0.00000
  57        2PX         0.00168   0.00004  -0.00007  -0.00003   0.00002
  58        2PY         0.00190   0.00005   0.00000   0.00000  -0.00002
  59        2PZ        -0.16085  -0.23929  -0.03485  -0.22394   0.12123
  60        3S         -0.00051  -0.00004   0.00024   0.00023  -0.00010
  61        3PX         0.00153   0.00010  -0.00025  -0.00029  -0.00011
  62        3PY         0.00219   0.00001   0.00005   0.00024   0.00011
  63        3PZ        -0.15731  -0.26495  -0.03740  -0.40114   0.21598
  64 8   H  1S          0.00061   0.00000  -0.00009  -0.00001   0.00005
  65        2S          0.00035   0.00003   0.00004   0.00003  -0.00016
  66 9   H  1S          0.00127  -0.00002   0.00001   0.00001  -0.00000
  67        2S          0.00099  -0.00003   0.00000   0.00005   0.00004
  68 10  H  1S         -0.00091   0.00002  -0.00000  -0.00000  -0.00000
  69        2S         -0.00068   0.00002  -0.00001  -0.00003  -0.00003
  70 11  H  1S         -0.00099  -0.00001   0.00002  -0.00001   0.00000
  71        2S         -0.00070  -0.00001   0.00002   0.00000   0.00002
  72 12  H  1S          0.00059  -0.00000  -0.00008  -0.00005   0.00003
  73        2S          0.00027  -0.00004   0.00005   0.00017  -0.00007
  74 13  H  1S          0.00148   0.00002   0.00000  -0.00001  -0.00002
  75        2S          0.00112   0.00003  -0.00001  -0.00009  -0.00007
  76 14  C  1S          0.00014  -0.00000  -0.00002   0.00000   0.00000
  77        2S         -0.00029   0.00000   0.00003   0.00000  -0.00001
  78        2PX        -0.00305   0.00000   0.00008   0.00004  -0.00007
  79        2PY        -0.00097  -0.00020  -0.00001   0.00025   0.00018
  80        2PZ         0.19169  -0.00117  -0.11562  -0.00915   0.02927
  81        3S          0.00078   0.00000   0.00003  -0.00007   0.00004
  82        3PX        -0.00162   0.00001  -0.00003   0.00006  -0.00014
  83        3PY        -0.00102  -0.00052   0.00002   0.00207   0.00147
  84        3PZ         0.19297  -0.00772  -0.13678   0.04062   0.05025
  85 15  H  1S         -0.11198  -0.00107   0.08280   0.03278  -0.04532
  86        2S         -0.09544  -0.00699   0.08577   0.11361  -0.07540
  87 16  H  1S          0.11559   0.00117  -0.08406  -0.03319   0.04602
  88        2S          0.09890   0.00692  -0.08715  -0.11350   0.07783
  89 17  H  1S         -0.00149  -0.00010   0.00113   0.00041  -0.00068
  90        2S         -0.00103   0.00007   0.00109  -0.00020  -0.00232
                          31        32        33        34        35
                           V         V         V         V         V
     Eigenvalues --     0.05193   0.10346   0.11255   0.11903   0.13343
   1 1   C  1S          0.04341   0.01095   0.00174   0.05492   0.00010
   2        2S         -0.03900   0.00014  -0.00102  -0.03535  -0.00015
   3        2PX         0.03763   0.03575   0.00369   0.11395   0.00064
   4        2PY         0.04264   0.11783   0.00341   0.08790   0.00023
   5        2PZ        -0.00043   0.00012  -0.21564   0.00805  -0.03274
   6        3S         -0.41124  -0.21885  -0.01926  -0.61233  -0.00194
   7        3PX         0.15829   0.21446   0.00841   0.27082   0.00342
   8        3PY         0.22431   0.26382   0.01957   0.51098   0.00106
   9        3PZ        -0.00096  -0.00033  -0.61939   0.02337  -0.08400
  10 2   C  1S          0.03775   0.04870  -0.00074  -0.01075  -0.00011
  11        2S         -0.02982  -0.01894   0.00064   0.01234  -0.00000
  12        2PX        -0.02886  -0.01117   0.00031   0.00750   0.00056
  13        2PY         0.07487   0.14738   0.00094   0.04074  -0.00093
  14        2PZ         0.00042   0.00051   0.21544  -0.00857   0.14780
  15        3S         -0.41763  -0.69020   0.00770   0.07933   0.00133
  16        3PX        -0.08780  -0.04054  -0.00222  -0.08637   0.00163
  17        3PY         0.29112   0.45132  -0.00127   0.02584  -0.00304
  18        3PZ         0.00093   0.00152   0.57955  -0.02327   0.39871
  19 3   C  1S          0.04398   0.02452  -0.00074  -0.02049  -0.00032
  20        2S         -0.03547  -0.00827   0.00011   0.00169   0.00005
  21        2PX        -0.07072  -0.06649   0.00430   0.11344   0.00127
  22        2PY         0.03403   0.06184  -0.00070  -0.02039  -0.00086
  23        2PZ        -0.00016  -0.00099  -0.14177   0.00645  -0.23473
  24        3S         -0.47237  -0.36062   0.01297   0.36730   0.00517
  25        3PX        -0.28648  -0.25134   0.01164   0.29322   0.00412
  26        3PY         0.14304   0.10154  -0.00415  -0.12886  -0.00235
  27        3PZ        -0.00036  -0.00264  -0.38333   0.01749  -0.64162
  28 4   C  1S          0.02407  -0.00164   0.00027   0.00615  -0.00003
  29        2S         -0.01970  -0.00672   0.00062   0.00674  -0.00019
  30        2PX         0.00727  -0.00975   0.00170   0.05748   0.00063
  31        2PY        -0.00317   0.05184   0.00032   0.00696   0.00015
  32        2PZ         0.00030  -0.00027   0.22766  -0.00797  -0.10152
  33        3S         -0.29057   0.10980  -0.01505  -0.32715   0.00036
  34        3PX         0.13430   0.02259  -0.00248   0.00389   0.00130
  35        3PY         0.03579   0.09584   0.00205   0.08507  -0.00154
  36        3PZ         0.00008  -0.00058   0.49582  -0.01806  -0.26736
  37 5   C  1S          0.04498  -0.01308  -0.00098  -0.02817  -0.00016
  38        2S         -0.03531   0.00494   0.00018   0.00407  -0.00000
  39        2PX        -0.07098   0.00737   0.00510   0.14229   0.00049
  40        2PY        -0.03402   0.04781   0.00166   0.05321  -0.00006
  41        2PZ        -0.00012   0.00114   0.03144  -0.00281   0.27638
  42        3S         -0.49320   0.17777   0.01641   0.47747   0.00296
  43        3PX        -0.28025   0.07785   0.01522   0.42646   0.00059
  44        3PY        -0.14379   0.04534   0.00518   0.15944   0.00084
  45        3PZ        -0.00030   0.00306   0.08884  -0.00772   0.75382
  46 6   C  1S          0.04148  -0.02686   0.00131   0.03847   0.00072
  47        2S         -0.03499   0.00713  -0.00073  -0.02297  -0.00046
  48        2PX         0.03671  -0.06846   0.00280   0.08479   0.00119
  49        2PY        -0.05616   0.15105  -0.00180  -0.04844  -0.00045
  50        2PZ        -0.00040   0.00035  -0.18440   0.00561   0.19711
  51        3S         -0.43615   0.38116  -0.01428  -0.44893  -0.00809
  52        3PX         0.19343  -0.27598   0.00616   0.23867   0.00269
  53        3PY        -0.22788   0.47261  -0.01388  -0.34363  -0.00296
  54        3PZ        -0.00082   0.00157  -0.44786   0.01352   0.54534
  55 7   C  1S          0.04036  -0.03203  -0.00139  -0.03087   0.00018
  56        2S         -0.03177   0.00706   0.00084   0.01771   0.00003
  57        2PX        -0.02645   0.00816   0.00066   0.02461  -0.00026
  58        2PY        -0.07781   0.13816   0.00162   0.04530  -0.00106
  59        2PZ         0.00036  -0.00090   0.09277  -0.00170  -0.26315
  60        3S         -0.45220   0.49339   0.01700   0.36988  -0.00348
  61        3PX        -0.06961   0.04981   0.00028   0.02685  -0.00226
  62        3PY        -0.31095   0.37014   0.00845   0.21568  -0.00272
  63        3PZ         0.00078  -0.00253   0.22697  -0.00391  -0.71836
  64 8   H  1S          0.04569   0.03886   0.00065   0.02638   0.00010
  65        2S          0.57734   0.60061   0.03175   0.95241   0.00434
  66 9   H  1S          0.05199   0.05193  -0.00006   0.00159  -0.00024
  67        2S          0.64034   0.93273  -0.00265   0.05711  -0.00524
  68 10  H  1S          0.05824   0.02722  -0.00112  -0.02720  -0.00035
  69        2S          0.69268   0.52470  -0.02244  -0.59076  -0.00863
  70 11  H  1S          0.05824  -0.00903  -0.00144  -0.03807  -0.00004
  71        2S          0.69582  -0.19430  -0.02884  -0.81807  -0.00236
  72 12  H  1S          0.04901  -0.04166   0.00022   0.01489   0.00039
  73        2S          0.61118  -0.86641   0.02060   0.63025   0.00913
  74 13  H  1S          0.05550  -0.04483  -0.00080  -0.02041   0.00013
  75        2S          0.67368  -0.76422  -0.01739  -0.43338   0.00558
  76 14  C  1S         -0.00283  -0.01042   0.00201   0.05810   0.00066
  77        2S         -0.00250   0.00351  -0.00055  -0.01824  -0.00024
  78        2PX         0.08258  -0.02233   0.00402   0.12151   0.00116
  79        2PY        -0.01719   0.09313   0.00011  -0.01654   0.00174
  80        2PZ         0.00069  -0.00013   0.11658  -0.00337  -0.00475
  81        3S          0.02968   0.14066  -0.02817  -0.81126  -0.00902
  82        3PX         0.31402  -0.09562   0.01651   0.50269   0.00489
  83        3PY        -0.10138   0.32587  -0.00074  -0.13872   0.01047
  84        3PZ         0.00383  -0.00053   0.51420  -0.01406   0.03987
  85 15  H  1S         -0.00623   0.00298   0.06361  -0.00476  -0.01726
  86        2S          0.04765   0.11888   0.64123   0.39089  -0.01513
  87 16  H  1S         -0.00664   0.00286  -0.06430  -0.00061   0.01831
  88        2S          0.04261   0.11204  -0.61884   0.43059   0.03809
  89 17  H  1S          0.00706  -0.01857   0.00150   0.02267  -0.00088
  90        2S          0.20239  -0.46760   0.02564   0.63543  -0.00658
                          36        37        38        39        40
                           V         V         V         V         V
     Eigenvalues --     0.15425   0.16900   0.20172   0.20886   0.21663
   1 1   C  1S          0.01887   0.01976  -0.06100  -0.05904   0.01351
   2        2S          0.00738  -0.01046   0.01732   0.04612   0.00074
   3        2PX         0.05393  -0.05745  -0.05922  -0.01809   0.00692
   4        2PY         0.01138  -0.05045  -0.11817  -0.07759   0.06393
   5        2PZ        -0.00010  -0.00157  -0.00205  -0.00545  -0.01944
   6        3S         -0.35810  -0.14825   0.98386   0.49293  -0.30245
   7        3PX         0.26414  -0.39745  -0.19733  -0.21386  -0.21520
   8        3PY        -0.14952  -0.05041  -0.54766  -0.58599   0.39097
   9        3PZ         0.00035  -0.00171  -0.00572  -0.01325  -0.04535
  10 2   C  1S          0.03477  -0.02893   0.02947   0.10145  -0.01649
  11        2S         -0.01770   0.01972  -0.00235  -0.05915   0.01448
  12        2PX         0.01010  -0.05551   0.03231  -0.06497  -0.05899
  13        2PY         0.04360   0.06107   0.07919   0.12879   0.07135
  14        2PZ         0.00043   0.00183   0.00113   0.00306   0.01065
  15        3S         -0.53126   0.41859  -0.61846  -1.23250   0.23763
  16        3PX        -0.04970  -0.19570   0.25494  -0.34600  -0.29294
  17        3PY         0.23079   0.16992   0.31816   0.86793   0.18253
  18        3PZ         0.00087   0.00425   0.00355   0.00892   0.03069
  19 3   C  1S         -0.02775   0.02690   0.06212  -0.09820   0.00241
  20        2S          0.00520  -0.00364  -0.02524   0.06452  -0.01835
  21        2PX         0.05808  -0.09125  -0.11306   0.05057   0.05851
  22        2PY        -0.03865   0.09008  -0.00942  -0.04633  -0.00934
  23        2PZ        -0.00061  -0.00212  -0.00058  -0.00187  -0.00651
  24        3S          0.43492  -0.45436  -0.92822   1.12771   0.27783
  25        3PX         0.14760  -0.30792  -0.57392   0.53621   0.10206
  26        3PY        -0.17252   0.30964  -0.08650  -0.38539   0.01337
  27        3PZ        -0.00172  -0.00569  -0.00149  -0.00482  -0.01652
  28 4   C  1S          0.00848   0.00647   0.00159   0.01320   0.03447
  29        2S          0.00833   0.02536  -0.01841  -0.02344  -0.02301
  30        2PX         0.06291  -0.03557  -0.01785  -0.05672  -0.10674
  31        2PY        -0.01524  -0.03134   0.06249   0.01424  -0.06636
  32        2PZ        -0.00066  -0.00086   0.00254   0.00540   0.01825
  33        3S          0.06990  -0.36894   0.15202  -0.01561  -0.43328
  34        3PX         0.43488  -0.27096   0.01987  -0.13069  -0.36811
  35        3PY        -0.06183  -0.11691   0.17178  -0.17217  -0.12812
  36        3PZ        -0.00291  -0.00290   0.00930   0.01996   0.06823
  37 5   C  1S         -0.02877   0.02041  -0.09644   0.05589  -0.03420
  38        2S          0.00558  -0.00855   0.03892  -0.04599   0.03433
  39        2PX         0.07827   0.03374   0.13471  -0.00331   0.03388
  40        2PY         0.06136   0.00391   0.04713   0.02778   0.05178
  41        2PZ         0.00081   0.00242  -0.00012   0.00037   0.00156
  42        3S          0.44185  -0.28391   1.46122  -0.46417   0.22189
  43        3PX         0.22596   0.16201   0.66867  -0.30152   0.37860
  44        3PY         0.25204  -0.07740   0.22400   0.04534   0.38769
  45        3PZ         0.00218   0.00649  -0.00031   0.00098   0.00410
  46 6   C  1S         -0.00404  -0.02968   0.02921  -0.00426  -0.10444
  47        2S          0.01177   0.01577   0.00473  -0.00253   0.05974
  48        2PX         0.05052  -0.03401   0.07521   0.01175  -0.05370
  49        2PY        -0.02811  -0.08168  -0.07985  -0.04070   0.06539
  50        2PZ         0.00094   0.00278  -0.00140  -0.00189  -0.00545
  51        3S         -0.06762   0.43490  -0.69956   0.15172   1.30679
  52        3PX         0.26980  -0.05800   0.21851  -0.00263  -0.40163
  53        3PY         0.06504  -0.45782  -0.21249  -0.28081   0.39001
  54        3PZ         0.00247   0.00546  -0.00501  -0.00945  -0.03121
  55 7   C  1S          0.03700  -0.04582   0.03391  -0.02068   0.08117
  56        2S         -0.02383   0.01615  -0.02429   0.02468  -0.04532
  57        2PX         0.04232   0.04129  -0.06211   0.00499  -0.02284
  58        2PY        -0.00712   0.11328   0.00198  -0.01786  -0.14463
  59        2PZ        -0.00084  -0.00255   0.00063   0.00054   0.00120
  60        3S         -0.51842   0.73186  -0.32059   0.10042  -0.99663
  61        3PX         0.04997   0.26206  -0.39794   0.09147  -0.04637
  62        3PY        -0.10500   0.47444  -0.08937   0.12240  -0.88012
  63        3PZ        -0.00242  -0.00652   0.00241   0.00350   0.01064
  64 8   H  1S          0.05309  -0.01997  -0.01035  -0.04826  -0.03090
  65        2S          0.30185  -0.33844  -0.98521  -0.91366   0.24151
  66 9   H  1S          0.00630   0.00902  -0.00834   0.03510   0.00921
  67        2S          0.43964   0.12686   0.48246   1.49414   0.25220
  68 10  H  1S         -0.01051   0.01887   0.00983  -0.02991   0.01787
  69        2S         -0.44478   0.70703   0.88369  -1.14109  -0.16695
  70 11  H  1S         -0.01952  -0.00823  -0.01170   0.02514  -0.03002
  71        2S         -0.59109  -0.04461  -1.32669   0.46641  -0.65934
  72 12  H  1S          0.04193  -0.01508  -0.01180  -0.00431  -0.05116
  73        2S          0.28668   0.08623   0.59194   0.17402  -1.21073
  74 13  H  1S          0.00155  -0.00855   0.01556  -0.01399   0.03212
  75        2S          0.26377  -0.84839   0.34144  -0.17242   1.36446
  76 14  C  1S         -0.14844   0.01272   0.01727   0.03253   0.04674
  77        2S          0.04836  -0.00709  -0.00287  -0.00668  -0.01405
  78        2PX        -0.03610  -0.02732   0.01584   0.01696   0.01247
  79        2PY        -0.06705  -0.21825   0.02012  -0.04635  -0.04181
  80        2PZ         0.00128   0.00070  -0.00344  -0.00786  -0.02855
  81        3S          1.97707  -0.15262  -0.24423  -0.46477  -0.66386
  82        3PX        -0.16327  -0.11233   0.04954   0.02171  -0.03071
  83        3PY        -0.32792  -0.98498   0.18767   0.00196  -0.32886
  84        3PZ         0.00707   0.00391  -0.01723  -0.03861  -0.13715
  85 15  H  1S         -0.02233  -0.03840   0.02802   0.01768  -0.03906
  86        2S         -1.01641  -0.60733   0.23921   0.13392  -0.10878
  87 16  H  1S         -0.02212  -0.03700   0.02809   0.01934  -0.02990
  88        2S         -1.02038  -0.58829   0.26442   0.20530   0.15540
  89 17  H  1S          0.01263   0.07498  -0.03893  -0.01983   0.06525
  90        2S         -0.44995   1.17836  -0.14293   0.23200   0.68018
                          41        42        43        44        45
                           V         V         V         V         V
     Eigenvalues --     0.21864   0.25125   0.28261   0.30470   0.40287
   1 1   C  1S         -0.00251   0.07341  -0.04471  -0.06307  -0.02736
   2        2S          0.00238  -0.02381   0.01586   0.02545  -0.02017
   3        2PX        -0.00243   0.05998   0.13555   0.10392  -0.11314
   4        2PY         0.00494  -0.10216   0.04906  -0.02707   0.06565
   5        2PZ         0.18259   0.00256  -0.00116   0.00060  -0.00078
   6        3S          0.01817  -1.20824   0.95557   0.87952   0.97834
   7        3PX        -0.04396   0.56049   0.57681   0.24643  -1.89120
   8        3PY         0.03127  -0.55349   0.34688  -0.17714   1.38707
   9        3PZ         0.43326   0.00574  -0.00115   0.00161  -0.00043
  10 2   C  1S          0.00055   0.04717   0.03375   0.06978  -0.05868
  11        2S         -0.00000   0.00616   0.00253  -0.04034  -0.03518
  12        2PX        -0.00684  -0.11656   0.04624   0.03678  -0.06528
  13        2PY         0.01307  -0.06946   0.01889  -0.14348  -0.01683
  14        2PZ        -0.09851  -0.00118   0.00058  -0.00016   0.00024
  15        3S          0.00213  -1.12621  -0.77398  -1.04747   2.15903
  16        3PX        -0.03108  -0.68438   0.49791   0.26013  -0.47315
  17        3PY         0.05394  -0.58365   0.07503  -0.49091   0.38250
  18        3PZ        -0.28731  -0.00343   0.00116  -0.00062   0.00013
  19 3   C  1S         -0.00080  -0.06811   0.05728  -0.00471  -0.00715
  20        2S         -0.00056   0.01591  -0.00712   0.00130  -0.01986
  21        2PX         0.00775  -0.13201   0.05279  -0.03639   0.13061
  22        2PY        -0.00179  -0.03158  -0.14862  -0.05513   0.10819
  23        2PZ         0.05880   0.00074  -0.00042   0.00008  -0.00014
  24        3S          0.03116   1.40522  -1.16562  -0.01361   0.62138
  25        3PX         0.02837  -0.71831   0.31236  -0.34954   0.93918
  26        3PY        -0.00753  -0.25053  -1.10020  -0.63024   0.80759
  27        3PZ         0.14894   0.00187  -0.00106   0.00013  -0.00016
  28 4   C  1S          0.00565  -0.13478  -0.05921   0.09585   0.02960
  29        2S         -0.00281   0.04372   0.03799  -0.03762   0.01959
  30        2PX        -0.01539   0.02424  -0.09029   0.21066   0.00155
  31        2PY        -0.00454  -0.06123   0.13904   0.02960   0.27253
  32        2PZ        -0.17801  -0.00244   0.00023  -0.00093   0.00012
  33        3S         -0.07956   2.26603   0.84699  -1.53731  -0.92631
  34        3PX        -0.05549  -0.10910  -0.65032   1.30674  -0.12237
  35        3PY        -0.01060  -0.36225   0.73512   0.03157   2.35327
  36        3PZ        -0.66624  -0.00946   0.00082  -0.00355   0.00035
  37 5   C  1S         -0.00244  -0.03566  -0.07464  -0.05551  -0.03171
  38        2S          0.00243   0.01458   0.01111   0.00960   0.00058
  39        2PX         0.00621  -0.10098  -0.07591  -0.08266  -0.14678
  40        2PY         0.00487   0.10438  -0.10913  -0.04414   0.16648
  41        2PZ        -0.01083  -0.00008   0.00032   0.00016   0.00009
  42        3S          0.01806   0.66582   1.65645   1.07081   0.68241
  43        3PX         0.04468  -0.51304  -0.41203  -0.59445  -1.44645
  44        3PY         0.03421   0.74211  -0.83830  -0.13529   1.46682
  45        3PZ        -0.02850  -0.00023   0.00074   0.00031   0.00025
  46 6   C  1S         -0.01045   0.00414   0.08456  -0.04185   0.02949
  47        2S          0.00627  -0.00151  -0.02081   0.02025   0.03864
  48        2PX        -0.00619   0.10357  -0.13359  -0.01666   0.05430
  49        2PY         0.00281   0.08288   0.04672   0.06224  -0.03417
  50        2PZ         0.05975   0.00086   0.00074   0.00084   0.00037
  51        3S          0.12943   0.02681  -1.52620   0.45076  -1.40720
  52        3PX        -0.05365   0.72073  -0.41703  -0.31987   1.02471
  53        3PY         0.01583   0.40880   0.17767   0.25059   0.41537
  54        3PZ         0.31151   0.00436   0.00013   0.00177  -0.00009
  55 7   C  1S          0.00659   0.07893  -0.03440   0.05079   0.06810
  56        2S         -0.00365  -0.01043   0.02490  -0.04176   0.02327
  57        2PX        -0.00382  -0.03907  -0.14799  -0.01378  -0.09622
  58        2PY        -0.01712   0.08165  -0.04097   0.14199   0.06232
  59        2PZ        -0.01656  -0.00018  -0.00043  -0.00029  -0.00014
  60        3S         -0.07562  -1.58949   0.48868  -0.54857  -2.15905
  61        3PX        -0.01013  -0.17110  -0.99402  -0.25106  -0.92881
  62        3PY        -0.09493   0.53066   0.09522   0.56244   0.93828
  63        3PZ        -0.11479  -0.00148  -0.00067  -0.00087   0.00011
  64 8   H  1S         -0.00520  -0.03614   0.01149  -0.00829   0.04632
  65        2S         -0.02110   0.24040   0.38137  -0.33175  -0.26134
  66 9   H  1S          0.00252  -0.04639  -0.03973  -0.01022   0.12462
  67        2S          0.07478  -0.12324   0.14651  -0.25855  -0.01943
  68 10  H  1S          0.00052   0.04913  -0.02934  -0.00360   0.09979
  69        2S         -0.04102   0.19216  -0.41163   0.03161  -0.40269
  70 11  H  1S         -0.00255   0.02082   0.05182   0.02350  -0.01333
  71        2S         -0.06856  -0.00869   0.28602   0.27606   0.31504
  72 12  H  1S         -0.00618  -0.01964  -0.04804  -0.02961  -0.11150
  73        2S         -0.11251   0.05328  -0.05907  -0.69217   0.42115
  74 13  H  1S          0.00381  -0.05234   0.01621   0.02204  -0.09772
  75        2S          0.14008  -0.04268   0.07763  -0.27237  -0.12920
  76 14  C  1S          0.00584   0.05667   0.03987  -0.05754  -0.00549
  77        2S         -0.00196   0.00699   0.00079  -0.00736  -0.01270
  78        2PX         0.00108  -0.01994  -0.07551   0.19235  -0.03085
  79        2PY        -0.00361  -0.03075  -0.11875  -0.07592   0.06822
  80        2PZ         0.28194   0.00536  -0.00025   0.00223  -0.00090
  81        3S         -0.08208  -0.94454  -0.67088   1.00942   0.17523
  82        3PX        -0.00498  -0.51674  -0.71133   1.53756   0.06774
  83        3PY        -0.02396  -0.04391  -0.66661  -0.30548  -0.52481
  84        3PZ         1.34613   0.02286  -0.00120   0.00820  -0.00195
  85 15  H  1S          0.03616  -0.01849  -0.01908   0.04095  -0.02159
  86        2S          1.25711   0.11589  -0.34657   0.05641  -0.16022
  87 16  H  1S         -0.04152  -0.01913  -0.01917   0.04085  -0.02144
  88        2S         -1.24976   0.07379  -0.33069   0.04581  -0.14970
  89 17  H  1S          0.00521   0.01459  -0.02129   0.05512   0.03213
  90        2S          0.07893   0.33116   0.56476   0.63610   0.15070
                          46        47        48        49        50
                           V         V         V         V         V
     Eigenvalues --     0.42215   0.45381   0.48421   0.63152   0.65756
   1 1   C  1S         -0.05040   0.10372   0.06219   0.00554  -0.02336
   2        2S         -0.02167  -0.01837  -0.00469  -0.15104  -0.02758
   3        2PX         0.14115  -0.09724   0.01972  -0.20083   0.06861
   4        2PY        -0.11631  -0.16016  -0.08555  -0.25258  -0.03655
   5        2PZ         0.00035   0.00070   0.00049   0.00040  -0.00177
   6        3S          1.77743  -2.32669  -1.44053   0.00469   0.45143
   7        3PX         1.13476  -1.14949  -0.69721   0.48071  -2.36493
   8        3PY        -0.50905  -1.83585  -0.06241  -0.04192   1.88839
   9        3PZ         0.00046   0.00064  -0.00018  -0.00024   0.00102
  10 2   C  1S         -0.00242  -0.08606  -0.06295   0.00343   0.04252
  11        2S          0.00629  -0.00074   0.03434  -0.15048  -0.05207
  12        2PX         0.18287   0.06929  -0.19216   0.10647  -0.18455
  13        2PY         0.06509   0.15232   0.10807  -0.30092  -0.15629
  14        2PZ        -0.00008  -0.00018  -0.00018  -0.00005   0.00036
  15        3S          0.03635   2.08271   0.98066   0.01233  -0.21934
  16        3PX         2.30263  -0.41033  -0.71161   0.26801  -2.59580
  17        3PY         0.57919   1.64722   1.00578   0.34647  -0.79236
  18        3PZ        -0.00034  -0.00047  -0.00005  -0.00001  -0.00016
  19 3   C  1S          0.05295   0.05734   0.09281   0.00942  -0.03589
  20        2S          0.02827  -0.00682  -0.01612  -0.14949   0.02403
  21        2PX         0.07176   0.04571   0.12053   0.29656  -0.16134
  22        2PY         0.15432  -0.12066  -0.10446  -0.12831  -0.13798
  23        2PZ         0.00001   0.00008   0.00005   0.00005  -0.00010
  24        3S         -1.72401  -1.35531  -2.09961  -0.04365   0.30762
  25        3PX         0.98343   1.20664   0.88277  -0.05467  -1.50634
  26        3PY         0.94216   0.13196  -1.93159   0.38065  -2.29489
  27        3PZ        -0.00021  -0.00010  -0.00013  -0.00001   0.00037
  28 4   C  1S         -0.04408  -0.09056   0.02674  -0.00494  -0.00916
  29        2S         -0.03182   0.00373  -0.00679  -0.13824   0.00161
  30        2PX        -0.06734   0.23008  -0.06042  -0.37535  -0.02249
  31        2PY         0.09764   0.02398  -0.12036  -0.01915   0.31485
  32        2PZ        -0.00026  -0.00042   0.00011   0.00021   0.00002
  33        3S          1.65723   2.09765  -0.66166   0.31319   0.17951
  34        3PX        -0.47747   2.59701  -0.63988   0.14255   0.26769
  35        3PY         0.59790  -0.11935  -1.12343  -0.32463   3.24835
  36        3PZ        -0.00103  -0.00106   0.00033   0.00010  -0.00020
  37 5   C  1S          0.01421  -0.00678  -0.10679   0.00199   0.03847
  38        2S          0.03994   0.00390   0.00699  -0.14281  -0.05050
  39        2PX        -0.07048  -0.07296  -0.09976   0.26345   0.18420
  40        2PY        -0.08181   0.10469  -0.14197   0.14897  -0.08206
  41        2PZ         0.00008   0.00006  -0.00016   0.00001   0.00015
  42        3S         -1.03408   0.04252   2.59923   0.03552  -0.46007
  43        3PX        -0.26643   0.07568  -1.24787  -0.38221   1.54262
  44        3PY        -0.40911  -0.51985  -1.66718   0.12105  -2.44007
  45        3PZ         0.00008   0.00002  -0.00019   0.00002  -0.00057
  46 6   C  1S         -0.04727   0.07089  -0.09269   0.00144   0.02512
  47        2S          0.00097  -0.00494   0.00393  -0.15245  -0.00352
  48        2PX         0.16934  -0.11055  -0.00761  -0.18805  -0.06028
  49        2PY         0.10866   0.10718  -0.18474   0.25000   0.10824
  50        2PZ         0.00057   0.00039  -0.00092   0.00009   0.00199
  51        3S          1.31891  -1.75041   2.11290   0.10351  -0.55547
  52        3PX         2.07444  -0.63382   0.82284   0.01780   2.36338
  53        3PY         0.90730   1.66834  -1.11919  -0.34573   2.11793
  54        3PZ         0.00064   0.00047   0.00005  -0.00008  -0.00105
  55 7   C  1S          0.05794  -0.02916   0.07960   0.01173  -0.03609
  56        2S          0.02090  -0.00887  -0.03495  -0.15551   0.01092
  57        2PX         0.18118   0.11708   0.12192   0.06654   0.24856
  58        2PY        -0.02358  -0.07676   0.16519   0.32192  -0.10052
  59        2PZ        -0.00015  -0.00008   0.00027   0.00003  -0.00026
  60        3S         -1.73697   0.80873  -1.42336  -0.07613   0.32293
[...]
  83        3PY        -0.00000  -0.00000   0.00000  -0.00000   0.00000
  84        3PZ        -0.00000  -0.00000  -0.00000  -0.00000  -0.00000
  85 15  H  1S          0.00000   0.00000   0.00000  -0.00000   0.00000
  86        2S          0.00000   0.00000   0.00000  -0.00000  -0.00000
  87 16  H  1S          0.00000   0.00000   0.00000  -0.00000   0.00000
  88        2S          0.00000   0.00000   0.00000  -0.00000  -0.00000
  89 17  H  1S          0.00000   0.00000   0.00000   0.00000   0.00000
  90        2S          0.00000   0.00000  -0.00000  -0.00000   0.00000
                          71        72        73        74        75
  71        2S          0.05738
  72 12  H  1S         -0.00000   0.17372
  73        2S         -0.00003   0.06278   0.06019
  74 13  H  1S         -0.00035  -0.00000  -0.00037   0.17371
  75        2S         -0.00069  -0.00039  -0.00078   0.06170   0.05839
  76 14  C  1S         -0.00000   0.00000   0.00001   0.00000   0.00000
  77        2S          0.00000  -0.00000  -0.00007  -0.00000  -0.00000
  78        2PX         0.00000  -0.00000  -0.00014  -0.00000  -0.00000
  79        2PY        -0.00000  -0.00000  -0.00005   0.00000   0.00000
  80        2PZ         0.00000  -0.00000   0.00000   0.00000   0.00000
  81        3S          0.00000  -0.00025  -0.00039  -0.00000  -0.00000
  82        3PX         0.00000  -0.00013  -0.00007  -0.00000  -0.00003
  83        3PY        -0.00000  -0.00050   0.00011  -0.00000  -0.00000
  84        3PZ         0.00000  -0.00000   0.00000  -0.00000  -0.00000
  85 15  H  1S         -0.00000   0.00000   0.00000   0.00000   0.00000
  86        2S         -0.00000   0.00001   0.00006   0.00000   0.00000
  87 16  H  1S         -0.00000   0.00000   0.00000   0.00000   0.00000
  88        2S         -0.00000   0.00001   0.00006   0.00000   0.00000
  89 17  H  1S         -0.00000  -0.00000   0.00008  -0.00000   0.00000
  90        2S         -0.00000   0.00017   0.00110  -0.00000   0.00000
                          76        77        78        79        80
  76 14  C  1S          2.03891
  77        2S          0.02278   0.09820
  78        2PX         0.00000   0.00000   0.26130
  79        2PY         0.00000   0.00000   0.00000   0.28887
  80        2PZ         0.00000   0.00000   0.00000   0.00000   0.28420
  81        3S         -0.07804   0.17538   0.00000   0.00000   0.00000
  82        3PX         0.00000   0.00000   0.06743   0.00000   0.00000
  83        3PY         0.00000   0.00000   0.00000   0.14433   0.00000
  84        3PZ         0.00000   0.00000   0.00000   0.00000   0.13965
  85 15  H  1S         -0.00077   0.00777   0.00589   0.01330   0.03522
  86        2S          0.00149   0.00246   0.00496   0.00957   0.02531
  87 16  H  1S         -0.00077   0.00776   0.00584   0.01223   0.03629
  88        2S          0.00150   0.00241   0.00494   0.00880   0.02609
  89 17  H  1S         -0.00081   0.00819   0.00753   0.04809   0.00001
  90        2S          0.00113   0.00404   0.00574   0.03359   0.00000
                          81        82        83        84        85
  81        3S          0.90992
  82        3PX         0.00000   0.06695
  83        3PY         0.00000   0.00000   0.26230
  84        3PZ         0.00000   0.00000   0.00000   0.24835
  85 15  H  1S          0.05909   0.00493   0.02345   0.06042   0.16917
  86        2S          0.03200   0.00602   0.02340   0.06094   0.08120
  87 16  H  1S          0.05898   0.00489   0.02160   0.06233  -0.00012
  88        2S          0.03171   0.00599   0.02153   0.06285  -0.00363
  89 17  H  1S          0.06191   0.00646   0.08268   0.00001  -0.00013
  90        2S          0.03915   0.00723   0.08158   0.00001  -0.00357
                          86        87        88        89        90
  86        2S          0.10745
  87 16  H  1S         -0.00362   0.16906
  88        2S         -0.00974   0.08113   0.10747
  89 17  H  1S         -0.00372  -0.00013  -0.00371   0.17328
  90        2S         -0.00979  -0.00355  -0.00973   0.08175   0.10331
     Gross orbital populations:
                           1
   1 1   C  1S          1.98829
   2        2S          0.40610
   3        2PX         0.62032
   4        2PY         0.60286
   5        2PZ         0.36472
   6        3S          0.90546
   7        3PX         0.34180
   8        3PY         0.40955
   9        3PZ         0.52371
  10 2   C  1S          1.98822
  11        2S          0.40882
  12        2PX         0.63396
  13        2PY         0.60163
  14        2PZ         0.34859
  15        3S          0.90754
  16        3PX         0.24547
  17        3PY         0.54156
  18        3PZ         0.50817
  19 3   C  1S          1.98821
  20        2S          0.40796
  21        2PX         0.60512
  22        2PY         0.62834
  23        2PZ         0.35271
  24        3S          0.91136
  25        3PX         0.49098
  26        3PY         0.29266
  27        3PZ         0.51290
  28 4   C  1S          1.98884
  29        2S          0.40783
  30        2PX         0.62032
  31        2PY         0.62938
  32        2PZ         0.32913
  33        3S          0.89045
  34        3PX         0.38566
  35        3PY         0.32018
  36        3PZ         0.47847
  37 5   C  1S          1.98819
  38        2S          0.40738
  39        2PX         0.60415
  40        2PY         0.62750
  41        2PZ         0.35656
  42        3S          0.91027
  43        3PX         0.49389
  44        3PY         0.28771
  45        3PZ         0.51854
  46 6   C  1S          1.98829
  47        2S          0.40665
  48        2PX         0.62048
  49        2PY         0.60132
  50        2PZ         0.36590
  51        3S          0.90087
  52        3PX         0.33957
  53        3PY         0.41783
  54        3PZ         0.52948
  55 7   C  1S          1.98823
  56        2S          0.40941
  57        2PX         0.63516
  58        2PY         0.60242
  59        2PZ         0.34468
  60        3S          0.90784
  61        3PX         0.24771
  62        3PY         0.54123
  63        3PZ         0.50187
  64 8   H  1S          0.44988
  65        2S          0.23249
  66 9   H  1S          0.44984
  67        2S          0.22593
  68 10  H  1S          0.44966
  69        2S          0.22477
  70 11  H  1S          0.44959
  71        2S          0.22552
  72 12  H  1S          0.45056
  73        2S          0.23283
  74 13  H  1S          0.44985
  75        2S          0.22527
  76 14  C  1S          1.98833
  77        2S          0.35058
  78        2PX         0.51334
  79        2PY         0.55590
  80        2PZ         0.54759
  81        3S          1.16026
  82        3PX         0.25276
  83        3PY         0.61818
  84        3PZ         0.61425
  85 15  H  1S          0.44154
  86        2S          0.28676
  87 16  H  1S          0.44130
  88        2S          0.28631
  89 17  H  1S          0.45043
  90        2S          0.29591
          Condensed to atoms (all electrons):
               1          2          3          4          5          6
     1  C    5.200545   0.436906  -0.082138   0.377534   0.002142  -0.054775
     2  C    0.436906   5.177354   0.403811  -0.077597  -0.083182  -0.000616
     3  C   -0.082138   0.403811   5.198201   0.001461   0.425878   0.002020
     4  C    0.377534  -0.077597   0.001461   5.443572   0.001677   0.409172
     5  C    0.002142  -0.083182   0.425878   0.001677   5.198484  -0.080642
     6  C   -0.054775  -0.000616   0.002020   0.409172  -0.080642   5.171532
     7  C   -0.000066   0.001760  -0.082953  -0.082928   0.405589   0.423306
     8  H    0.389878  -0.029186   0.001789  -0.037841  -0.000053   0.001490
     9  H   -0.032069   0.383091  -0.031570   0.001816   0.001699  -0.000037
    10  H    0.001661  -0.031065   0.382491  -0.000034  -0.030303  -0.000030
    11  H   -0.000029   0.001643  -0.030366  -0.000037   0.382777   0.001653
    12  H    0.001630  -0.000032  -0.000049  -0.034795   0.001746   0.387230
    13  H   -0.000039  -0.000036   0.001691   0.001850  -0.031596  -0.031948
    14  C   -0.076736   0.001113  -0.000049   0.199438  -0.000029  -0.060562
    15  H   -0.002491   0.000023  -0.000001  -0.051353   0.000004   0.001699
    16  H   -0.002452   0.000013  -0.000000  -0.051393   0.000004   0.001611
    17  H    0.003295  -0.000042   0.000004  -0.050286  -0.000006  -0.000703
               7          8          9         10         11         12
     1  C   -0.000066   0.389878  -0.032069   0.001661  -0.000029   0.001630
     2  C    0.001760  -0.029186   0.383091  -0.031065   0.001643  -0.000032
     3  C   -0.082953   0.001789  -0.031570   0.382491  -0.030366  -0.000049
     4  C   -0.082928  -0.037841   0.001816  -0.000034  -0.000037  -0.034795
     5  C    0.405589  -0.000053   0.001699  -0.030303   0.382777   0.001746
     6  C    0.423306   0.001490  -0.000037  -0.000030   0.001653   0.387230
     7  C    5.188383  -0.000027  -0.000037   0.001631  -0.031071  -0.030227
     8  H   -0.000027   0.359068  -0.001518  -0.000029   0.000000  -0.000032
     9  H   -0.000037  -0.001518   0.355846  -0.001387  -0.000028   0.000000
    10  H    0.001631  -0.000029  -0.001387   0.352884  -0.001361   0.000000
    11  H   -0.031071   0.000000  -0.000028  -0.001361   0.353355  -0.000029
    12  H   -0.030227  -0.000032   0.000000   0.000000  -0.000029   0.359479
    13  H    0.382692   0.000000   0.000000  -0.000028  -0.001396  -0.001536
    14  C    0.002305  -0.001769  -0.000035   0.000000   0.000000  -0.001480
    15  H   -0.000079   0.000269   0.000002  -0.000000  -0.000000   0.000067
    16  H   -0.000080   0.000257   0.000002  -0.000000  -0.000000   0.000068
    17  H    0.000346   0.000076   0.000000  -0.000000  -0.000000   0.001349
              13         14         15         16         17
     1  C   -0.000039  -0.076736  -0.002491  -0.002452   0.003295
     2  C   -0.000036   0.001113   0.000023   0.000013  -0.000042
     3  C    0.001691  -0.000049  -0.000001  -0.000000   0.000004
     4  C    0.001850   0.199438  -0.051353  -0.051393  -0.050286
     5  C   -0.031596  -0.000029   0.000004   0.000004  -0.000006
     6  C   -0.031948  -0.060562   0.001699   0.001611  -0.000703
     7  C    0.382692   0.002305  -0.000079  -0.000080   0.000346
     8  H    0.000000  -0.001769   0.000269   0.000257   0.000076
     9  H    0.000000  -0.000035   0.000002   0.000002   0.000000
    10  H   -0.000028   0.000000  -0.000000  -0.000000  -0.000000
    11  H   -0.001396   0.000000  -0.000000  -0.000000  -0.000000
    12  H   -0.001536  -0.001480   0.000067   0.000068   0.001349
    13  H    0.355495  -0.000033   0.000000   0.000000   0.000001
    14  C   -0.000033   5.402059   0.375440   0.374989   0.386535
    15  H    0.000000   0.375440   0.439017  -0.017102  -0.017201
    16  H    0.000000   0.374989  -0.017102   0.438807  -0.017116
    17  H    0.000001   0.386535  -0.017201  -0.017116   0.440095
 Mulliken charges:
               1
     1  C   -0.162795
     2  C   -0.183957
     3  C   -0.190221
     4  C   -0.050257
     5  C   -0.194190
     6  C   -0.170401
     7  C   -0.178545
     8  H    0.317628
     9  H    0.324225
    10  H    0.325568
    11  H    0.324889
    12  H    0.316610
    13  H    0.324882
    14  C   -0.601186
    15  H    0.271704
    16  H    0.272393
    17  H    0.253654
 Sum of Mulliken charges =   1.00000
 Mulliken charges with hydrogens summed into heavy atoms:
               1
     1  C    0.154833
     2  C    0.140268
     3  C    0.135347
     4  C   -0.050257
     5  C    0.130699
     6  C    0.146209
     7  C    0.146336
    14  C    0.196565
 Electronic spatial extent (au):  <R**2>=            930.7309
 Charge=              1.0000 electrons
 Dipole moment (field-independent basis, Debye):
    X=              1.0152    Y=             -0.0911    Z=              0.0033  Tot=              1.0193
 Quadrupole moment (field-independent basis, Debye-Ang):
   XX=            -25.5240   YY=            -30.1074   ZZ=            -50.7610
   XY=              0.2286   XZ=             -0.0085   YZ=             -0.0003
 Traceless Quadrupole moment (field-independent basis, Debye-Ang):
   XX=              9.9401   YY=              5.3567   ZZ=            -15.2968
   XY=              0.2286   XZ=             -0.0085   YZ=             -0.0003
 Octapole moment (field-independent basis, Debye-Ang**2):
  XXX=             10.8035  YYY=              0.9074  ZZZ=              0.0425  XYY=              6.7392
  XXY=             -0.5642  XXZ=              0.0139  XZZ=             -4.2085  YZZ=             -1.0164
  YYZ=             -0.0296  XYZ=              0.0027
 Hexadecapole moment (field-independent basis, Debye-Ang**3):
 XXXX=           -623.0980 YYYY=           -317.7116 ZZZZ=            -58.7570 XXXY=              0.5430
 XXXZ=             -0.0210 YYYX=             -2.4486 YYYZ=              0.0013 ZZZX=             -0.1090
 ZZZY=             -0.0037 XXYY=           -157.7697 XXZZ=           -143.0824 YYZZ=            -87.2040
 XXYZ=              0.0006 YYXZ=              0.1117 ZZXY=              3.1567
 N-N= 3.311985664913D+02 E-N=-1.362146420367D+03  KE= 3.050734819005D+02
 Orbital energies and kinetic energies (alpha):
                                 1                 2
   1         O               -11.420189         15.878573
   2         O               -11.410379         15.876375
   3         O               -11.409649         15.876485
   4         O               -11.407559         15.876022
   5         O               -11.406059         15.875886
   6         O               -11.405168         15.876309
   7         O               -11.403868         15.876980
   8         O               -11.338749         15.876519
   9         O                -1.357265          1.482144
  10         O                -1.278102          1.548517
  11         O                -1.259464          1.586947
  12         O                -1.150745          1.485404
  13         O                -1.099730          1.517079
  14         O                -1.048449          1.471978
  15         O                -0.935039          1.412175
  16         O                -0.921800          1.346039
  17         O                -0.892449          1.066102
  18         O                -0.820089          1.089767
  19         O                -0.798172          1.159529
  20         O                -0.753833          1.276295
  21         O                -0.746554          0.878031
  22         O                -0.738732          1.379375
  23         O                -0.691567          1.179269
  24         O                -0.688010          1.307804
  25         O                -0.684325          1.359952
  26         O                -0.680213          0.927079
  27         O                -0.571814          1.006670
  28         O                -0.552692          1.043436
  29         V                -0.143185          1.168690
  30         V                -0.139121          1.194849
  31         V                 0.051931          0.891656
  32         V                 0.103461          0.941159
  33         V                 0.112551          1.291341
  34         V                 0.119033          0.980930
  35         V                 0.133425          1.463428
  36         V                 0.154250          1.147734
  37         V                 0.169002          1.018749
  38         V                 0.201716          1.194970
  39         V                 0.208860          1.310409
  40         V                 0.216632          1.291502
  41         V                 0.218640          1.117578
  42         V                 0.251250          1.853043
  43         V                 0.282612          1.730159
  44         V                 0.304697          1.813266
  45         V                 0.402873          1.638970
  46         V                 0.422151          1.702043
  47         V                 0.453813          2.015885
  48         V                 0.484209          2.329965
  49         V                 0.631517          2.080431
  50         V                 0.657564          2.074005
  51         V                 0.730902          2.492758
  52         V                 0.739067          2.639551
  53         V                 0.765114          2.613326
  54         V                 0.795664          2.373547
  55         V                 0.810037          2.871760
  56         V                 0.829426          2.623443
  57         V                 0.835109          2.680404
  58         V                 0.869062          2.808894
  59         V                 0.871706          2.596947
  60         V                 0.897969          2.752077
  61         V                 0.911512          2.517496
  62         V                 0.913502          2.735885
  63         V                 0.945489          2.640120
  64         V                 0.966385          2.740237
  65         V                 0.989846          2.858377
  66         V                 1.001465          2.753577
  67         V                 1.038264          2.857359
  68         V                 1.077861          3.158338
  69         V                 1.093867          3.097032
  70         V                 1.135700          3.113414
  71         V                 1.167255          2.875789
  72         V                 1.183443          3.049776
  73         V                 1.204954          2.666886
  74         V                 1.227775          3.238882
  75         V                 1.264356          3.202380
  76         V                 1.275261          2.781240
  77         V                 1.288115          2.918855
  78         V                 1.359524          3.049263
  79         V                 1.367871          3.039389
  80         V                 1.498550          3.128801
  81         V                 1.510775          3.131413
  82         V                 1.576836          2.766923
  83         V                 1.585117          2.781749
  84         V                 1.606949          2.869975
  85         V                 1.702832          3.216533
  86         V                 1.818172          3.370616
  87         V                 1.841895          3.407833
  88         V                 2.039064          3.280674
  89         V                 2.235512          3.475178
  90         V                 2.265866          3.494583
 Total kinetic energy from orbitals= 3.050734819005D+02
 1\1\GINC-IISERK51\SP\RHF\3-21G*\C8H9(1+)\GAUSSIAN\12-Jun-2025\0\\# hf/
 3-21g* pop=full geom=connectivity\\Optimisation\\1,1\C,0,-0.537674,-1.
 242745,-0.000009\C,0,0.810389,-1.556906,0.000024\C,0,1.911356,-0.70160
 1,-0.000159\C,0,-1.160377,0.012326,-0.000188\C,0,1.920004,0.682943,-0.
 000055\C,0,-0.523251,1.257926,-0.000094\C,0,0.83057,1.55219,0.000044\H
 ,0,-1.232238,-2.116081,0.000122\H,0,1.051308,-2.646102,0.000169\H,0,2.
 90928,-1.198307,-0.000359\H,0,2.924262,1.16674,-0.000038\H,0,-1.200568
 ,2.14456,-0.0001\H,0,1.086139,2.638174,0.000192\C,0,-2.65059,0.003532,
 0.000112\H,0,-3.030763,-0.546355,-0.900066\H,0,-3.029327,-0.524077,0.9
 14247\H,0,-3.080655,1.035454,-0.012217\\Version=EM64L-G16RevB.01\State
 =1-A\HF=-306.2085662\RMSD=6.144e-09\Dipole=0.3994209,-0.035844,0.00128
 58\Quadrupole=7.3902282,3.9825903,-11.3728185,0.1699559,-0.0063078,-0.
 0001904\PG=C01 [X(C8H9)]\\@


 DIATOMIC MOLECULES ARE PECULIAR BECAUSE THEY ONLY HAVE TWO ENDS,
 AND THESE ENDS ARE VERY CLOSE TOGETHER.
 KLAUS RUEDENBERG, REV.MOD.PHYS. PG 176, 32, (1960)
 Job cpu time:       0 days  0 hours  0 minutes  1.3 seconds.
 Elapsed time:       0 days  0 hours  0 minutes  1.3 seconds.
 File lengths (MBytes):  RWF=      6 Int=      0 D2E=      0 Chk=      2 Scr=      1
 Normal termination of Gaussian 16 at Thu Jun 12 22:36:22 2025.
