 Entering Gaussian System, Link 0=g16
 Input=/home/gaussian/Documents/program files/Aromaticity/AM1 HF3-21G*/cycloheptatrienyl_cation/sp/cycloheptatrienyl_cation_isomer_sp.com
 Output=/home/gaussian/Documents/program files/Aromaticity/AM1 HF3-21G*/cycloheptatrienyl_cation/sp/cycloheptatrienyl_cation_isomer_sp.log
 Initial command:
 /usr/local/g16/l1.exe "/home/gaussian/tmp/Gau-143339.inp" -scrdir="/home/gaussian/tmp/"
 Entering Link 1 = /usr/local/g16/l1.exe PID=    143342.
  
 Copyright (c) 1988-2017, Gaussian, Inc.  All Rights Reserved.
  
 This is part of the Gaussian(R) 16 program.  It is based on
 the Gaussian(R) 09 system (copyright 2009, Gaussian, Inc.),
 the Gaussian(R) 03 system (copyright 2003, Gaussian, Inc.),
 the Gaussian(R) 98 system (copyright 1998, Gaussian, Inc.),
 the Gaussian(R) 94 system (copyright 1995, Gaussian, Inc.),
 the Gaussian 92(TM) system (copyright 1992, Gaussian, Inc.),
 the Gaussian 90(TM) system (copyright 1990, Gaussian, Inc.),
 the Gaussian 88(TM) system (copyright 1988, Gaussian, Inc.),
 the Gaussian 86(TM) system (copyright 1986, Carnegie Mellon
 University), and the Gaussian 82(TM) system (copyright 1983,
 Carnegie Mellon University). Gaussian is a federally registered
 trademark of Gaussian, Inc.
  
 This software contains proprietary and confidential information,
 including trade secrets, belonging to Gaussian, Inc.
  
 This software is provided under written license and may be
 used, copied, transmitted, or stored only in accord with that
 written license.
  
 The following legend is applicable only to US Government
 contracts under FAR:
  
                    RESTRICTED RIGHTS LEGEND
  
 Use, reproduction and disclosure by the US Government is
 subject to restrictions as set forth in subparagraphs (a)
 and (c) of the Commercial Computer Software - Restricted
 Rights clause in FAR 52.227-19.
  
 Gaussian, Inc.
 340 Quinnipiac St., Bldg. 40, Wallingford CT 06492
  
  
 ---------------------------------------------------------------
 Warning -- This program may not be used in any manner that
 competes with the business of Gaussian, Inc. or will provide
 assistance to any competitor of Gaussian, Inc.  The licensee
 of this program is prohibited from giving any competitor of
 Gaussian, Inc. access to this program.  By using this program,
 the user acknowledges that Gaussian, Inc. is engaged in the
 business of creating and licensing software in the field of
 computational chemistry and represents and warrants to the
 licensee that it is not a competitor of Gaussian, Inc. and that
 it will not use this program in any manner prohibited above.
 ---------------------------------------------------------------
  

 Cite this work as:
 Gaussian 16, Revision B.01,
 M. J. Frisch, G. W. Trucks, H. B. Schlegel, G. E. Scuseria, 
 M. A. Robb, J. R. Cheeseman, G. Scalmani, V. Barone, 
 G. A. Petersson, H. Nakatsuji, X. Li, M. Caricato, A. V. Marenich, 
 J. Bloino, B. G. Janesko, R. Gomperts, B. Mennucci, H. P. Hratchian, 
 J. V. Ortiz, A. F. Izmaylov, J. L. Sonnenberg, D. Williams-Young, 
 F. Ding, F. Lipparini, F. Egidi, J. Goings, B. Peng, A. Petrone, 
 T. Henderson, D. Ranasinghe, V. G. Zakrzewski, J. Gao, N. Rega, 
 G. Zheng, W. Liang, M. Hada, M. Ehara, K. Toyota, R. Fukuda, 
 J. Hasegawa, M. Ishida, T. Nakajima, Y. Honda, O. Kitao, H. Nakai, 
 T. Vreven, K. Throssell, J. A. Montgomery, Jr., J. E. Peralta, 
 F. Ogliaro, M. J. Bearpark, J. J. Heyd, E. N. Brothers, K. N. Kudin, 
 V. N. Staroverov, T. A. Keith, R. Kobayashi, J. Normand, 
 K. Raghavachari, A. P. Rendell, J. C. Burant, S. S. Iyengar, 
 J. Tomasi, M. Cossi, J. M. Millam, M. Klene, C. Adamo, R. Cammi, 
 J. W. Ochterski, R. L. Martin, K. Morokuma, O. Farkas, 
 J. B. Foresman, and D. J. Fox, Gaussian, Inc., Wallingford CT, 2016.
 
 ******************************************
 Gaussian 16:  EM64L-G16RevB.01 20-Dec-2017
                12-Jun-2025 
 ******************************************
 %chk=cycloheptatrienyl_cation_isomer_sp.chk
 --------------------------------------
 # hf/3-21g* pop=full geom=connectivity
 --------------------------------------
 1/38=1,57=2,172=1/1;
 2/12=2,17=6,18=5,40=1/2;
 3/5=5,7=1,11=9,25=1,30=1/1,2,3;
 4//1;
 5/5=2,38=5/2;
 6/7=3,28=1/1;
 99/5=1,9=1/99;
 ------------
 Optimisation
 ------------
 Symbolic Z-matrix:
 Charge =  1 Multiplicity = 1
 C                    -0.52389   1.33408   0.10953 
 C                     0.83607   1.54434   0.15239 
 C                     1.85208   0.61854  -0.06887 
 C                    -1.22395   0.08346   0.04817 
 C                     1.73633  -0.76253  -0.33332 
 C                    -0.59019  -1.15567   0.58183 
 C                     0.66098  -1.55651  -0.08922 
 H                    -1.16768   2.24368   0.0929 
 H                     1.16627   2.59607   0.3038 
 H                     2.88919   1.02716  -0.09926 
 H                     2.64628  -1.24225  -0.75552 
 H                     0.73305  -2.63454  -0.3461 
 C                    -2.4941    0.05235  -0.42457 
 H                    -3.03293   0.96244  -0.73515 
 H                    -3.05767  -0.88921  -0.52911 
 H                    -0.36608  -1.00593   1.68241 
 H                    -1.33046  -2.00582   0.53036 
 
                          Input orientation:                          
 ---------------------------------------------------------------------
 Center     Atomic      Atomic             Coordinates (Angstroms)
 Number     Number       Type             X           Y           Z
 ---------------------------------------------------------------------
      1          6           0       -0.523885    1.334084    0.109531
      2          6           0        0.836069    1.544336    0.152388
      3          6           0        1.852084    0.618542   -0.068868
      4          6           0       -1.223952    0.083460    0.048168
      5          6           0        1.736327   -0.762529   -0.333319
      6          6           0       -0.590189   -1.155665    0.581832
      7          6           0        0.660981   -1.556510   -0.089219
      8          1           0       -1.167675    2.243675    0.092901
      9          1           0        1.166271    2.596067    0.303801
     10          1           0        2.889186    1.027163   -0.099258
     11          1           0        2.646275   -1.242249   -0.755516
     12          1           0        0.733045   -2.634543   -0.346096
     13          6           0       -2.494095    0.052351   -0.424572
     14          1           0       -3.032933    0.962440   -0.735150
     15          1           0       -3.057672   -0.889213   -0.529105
     16          1           0       -0.366078   -1.005932    1.682414
     17          1           0       -1.330456   -2.005823    0.530363
 ---------------------------------------------------------------------
                    Distance matrix (angstroms):
                    1          2          3          4          5
     1  C    0.000000
     2  C    1.376778   0.000000
     3  C    2.487781   1.392241   0.000000
     4  C    1.434545   2.527589   3.124421   0.000000
     5  C    3.114556   2.523490   1.410919   3.102335   0.000000
     6  C    2.535018   3.083608   3.088028   1.490598   2.530758
     7  C    3.130326   3.115169   2.479918   2.502269   1.358808
     8  H    1.114494   2.123112   3.433099   2.161411   4.201447
     9  H    2.118247   1.112698   2.125988   3.477313   3.465697
    10  H    3.433198   2.132155   1.115112   4.222584   2.141697
    11  H    4.175609   3.444734   2.136532   4.169181   1.111929
    12  H    4.187776   4.209766   3.451328   3.372361   2.123953
    13  C    2.410360   3.694441   4.397314   1.355623   4.309156
    14  H    2.673374   4.011920   4.942225   2.158380   5.087517
    15  H    3.430886   4.641962   5.156631   2.154499   4.799667
    16  H    2.823923   3.207804   3.259777   2.143241   2.922761
    17  H    3.461594   4.176161   4.168325   2.146849   3.420071
                    6          7          8          9         10
     6  C    0.000000
     7  C    1.475267   0.000000
     8  H    3.482536   4.221203   0.000000
     9  H    4.151861   4.201628   2.369802   0.000000
    10  H    4.163493   3.411798   4.239687   2.364816   0.000000
    11  H    3.502955   2.117570   5.236191   4.247968   2.374850
    12  H    2.190680   1.110556   5.253805   5.288604   4.256520
    13  C    2.469212   3.557443   2.613249   4.516558   5.480493
    14  H    3.491104   4.517448   2.409651   4.624010   5.956512
    15  H    2.719127   3.803573   3.711330   5.539188   6.262778
    16  H    1.133105   2.120535   3.705274   4.150068   4.231380
    17  H    1.128456   2.133444   4.275056   5.240455   5.234578
                   11         12         13         14         15
    11  H    0.000000
    12  H    2.401366   0.000000
    13  C    5.311207   4.199999   0.000000
    14  H    6.092165   5.222283   1.102301   0.000000
    15  H    5.719345   4.177224   1.102311   1.863246   0.000000
    16  H    3.882476   2.824057   3.176131   4.102587   3.485558
    17  H    4.248637   2.328413   2.549909   3.648361   2.313561
                   16         17
    16  H    0.000000
    17  H    1.804724   0.000000
 Stoichiometry    C8H9(1+)
 Framework group  C1[X(C8H9)]
 Deg. of freedom    45
 Full point group                 C1      NOp   1
 Largest Abelian subgroup         C1      NOp   1
 Largest concise Abelian subgroup C1      NOp   1
                         Standard orientation:                         
 ---------------------------------------------------------------------
 Center     Atomic      Atomic             Coordinates (Angstroms)
 Number     Number       Type             X           Y           Z
 ---------------------------------------------------------------------
      1          6           0       -0.523885    1.334084    0.109531
      2          6           0        0.836069    1.544336    0.152388
      3          6           0        1.852084    0.618542   -0.068868
      4          6           0       -1.223952    0.083460    0.048168
      5          6           0        1.736327   -0.762529   -0.333319
      6          6           0       -0.590189   -1.155665    0.581832
      7          6           0        0.660981   -1.556510   -0.089219
      8          1           0       -1.167675    2.243675    0.092901
      9          1           0        1.166271    2.596067    0.303801
     10          1           0        2.889186    1.027163   -0.099258
     11          1           0        2.646275   -1.242249   -0.755516
     12          1           0        0.733045   -2.634543   -0.346096
     13          6           0       -2.494095    0.052351   -0.424572
     14          1           0       -3.032933    0.962440   -0.735150
     15          1           0       -3.057672   -0.889213   -0.529105
     16          1           0       -0.366078   -1.005932    1.682414
     17          1           0       -1.330456   -2.005823    0.530363
 ---------------------------------------------------------------------
 Rotational constants (GHZ):           3.4156722           2.0766983           1.3828826
 Standard basis: 3-21G* (6D, 7F)
 There are    90 symmetry adapted cartesian basis functions of A   symmetry.
 There are    90 symmetry adapted basis functions of A   symmetry.
    90 basis functions,   147 primitive gaussians,    90 cartesian basis functions
    28 alpha electrons       28 beta electrons
       nuclear repulsion energy       333.8452667990 Hartrees.
 NAtoms=   17 NActive=   17 NUniq=   17 SFac= 1.00D+00 NAtFMM=   60 NAOKFM=F Big=F
 Integral buffers will be    131072 words long.
 Raffenetti 1 integral format.
 Two-electron integral symmetry is turned on.
 One-electron integrals computed using PRISM.
 NBasis=    90 RedAO= T EigKep=  3.86D-03  NBF=    90
 NBsUse=    90 1.00D-06 EigRej= -1.00D+00 NBFU=    90
 ExpMin= 1.83D-01 ExpMax= 1.72D+02 ExpMxC= 1.72D+02 IAcc=3 IRadAn=         5 AccDes= 0.00D+00
 Harris functional with IExCor=  205 and IRadAn=       5 diagonalized for initial guess.
 HarFok:  IExCor=  205 AccDes= 0.00D+00 IRadAn=         5 IDoV= 1 UseB2=F ITyADJ=14
 ICtDFT=  3500011 ScaDFX=  1.000000  1.000000  1.000000  1.000000
 FoFCou: FMM=F IPFlag=           0 FMFlag=      100000 FMFlg1=           0
         NFxFlg=           0 DoJE=T BraDBF=F KetDBF=T FulRan=T
         wScrn=  0.000000 ICntrl=       500 IOpCl=  0 I1Cent=   200000004 NGrid=           0
         NMat0=    1 NMatS0=      1 NMatT0=    0 NMatD0=    1 NMtDS0=    0 NMtDT0=    0
 Petite list used in FoFCou.
 Keep R1 ints in memory in canonical form, NReq=9231569.
 Requested convergence on RMS density matrix=1.00D-08 within 128 cycles.
 Requested convergence on MAX density matrix=1.00D-06.
 Requested convergence on             energy=1.00D-06.
 No special actions if energy rises.
 SCF Done:  E(RHF) =  -306.156827107     A.U. after   15 cycles
            NFock= 15  Conv=0.95D-08     -V/T= 2.0035

 **********************************************************************

            Population analysis using the SCF Density.

 **********************************************************************

 Orbital symmetries:
       Occupied  (A) (A) (A) (A) (A) (A) (A) (A) (A) (A) (A) (A)
                 (A) (A) (A) (A) (A) (A) (A) (A) (A) (A) (A) (A)
                 (A) (A) (A) (A)
       Virtual   (A) (A) (A) (A) (A) (A) (A) (A) (A) (A) (A) (A)
                 (A) (A) (A) (A) (A) (A) (A) (A) (A) (A) (A) (A)
                 (A) (A) (A) (A) (A) (A) (A) (A) (A) (A) (A) (A)
                 (A) (A) (A) (A) (A) (A) (A) (A) (A) (A) (A) (A)
                 (A) (A) (A) (A) (A) (A) (A) (A) (A) (A) (A) (A)
                 (A) (A)
 The electronic state is 1-A.
 Alpha  occ. eigenvalues --  -11.43264 -11.43073 -11.41071 -11.39351 -11.38251
 Alpha  occ. eigenvalues --  -11.36868 -11.36563 -11.36148  -1.34635  -1.27131
 Alpha  occ. eigenvalues --   -1.24839  -1.14707  -1.09614  -1.02291  -0.92189
 Alpha  occ. eigenvalues --   -0.90730  -0.87749  -0.81958  -0.80835  -0.78531
 Alpha  occ. eigenvalues --   -0.76257  -0.73034  -0.70313  -0.69248  -0.67178
 Alpha  occ. eigenvalues --   -0.63935  -0.57440  -0.50522
 Alpha virt. eigenvalues --   -0.18351  -0.04799   0.02614   0.06387   0.10545
 Alpha virt. eigenvalues --    0.11319   0.12414   0.15271   0.17060   0.18158
 Alpha virt. eigenvalues --    0.21003   0.21385   0.22240   0.26450   0.27703
 Alpha virt. eigenvalues --    0.34755   0.36209   0.41717   0.44105   0.48347
 Alpha virt. eigenvalues --    0.57524   0.64879   0.72274   0.74645   0.75981
 Alpha virt. eigenvalues --    0.79680   0.80178   0.83131   0.84432   0.87673
 Alpha virt. eigenvalues --    0.88419   0.89124   0.90770   0.92018   0.93488
 Alpha virt. eigenvalues --    0.95812   0.97173   0.99774   1.07022   1.08666
 Alpha virt. eigenvalues --    1.09908   1.12118   1.13180   1.14578   1.20410
 Alpha virt. eigenvalues --    1.22461   1.24171   1.27416   1.32424   1.37705
 Alpha virt. eigenvalues --    1.39986   1.46740   1.50578   1.53422   1.56222
 Alpha virt. eigenvalues --    1.58836   1.63277   1.75114   1.91045   1.97141
 Alpha virt. eigenvalues --    2.15658   2.33620
     Molecular Orbital Coefficients:
                           1         2         3         4         5
                           O         O         O         O         O
     Eigenvalues --   -11.43264 -11.43073 -11.41071 -11.39351 -11.38251
   1 1   C  1S         -0.03875   0.98654  -0.00165   0.00312   0.00396
   2        2S         -0.00386   0.09862   0.00041  -0.00061  -0.00246
   3        2PX        -0.00118   0.00052   0.00017   0.00086   0.00049
   4        2PY         0.00000  -0.00094  -0.00019   0.00040   0.00124
   5        2PZ         0.00011   0.00000   0.00011   0.00025  -0.00010
   6        3S         -0.00459  -0.08763  -0.00252  -0.00023   0.02163
   7        3PX        -0.00003  -0.01001  -0.00526  -0.00459  -0.00738
   8        3PY         0.00492   0.01444   0.00246  -0.00333  -0.01431
   9        3PZ         0.00045   0.00019  -0.00044  -0.00018  -0.00008
  10 2   C  1S         -0.00379  -0.00363  -0.00049  -0.00209  -0.00482
  11        2S         -0.00434  -0.00484  -0.00042  -0.00080  -0.00055
  12        2PX        -0.00084   0.00174   0.00002   0.00024   0.00060
  13        2PY         0.00158   0.00097   0.00005   0.00012   0.00028
  14        2PZ         0.00032   0.00014  -0.00003  -0.00007   0.00022
  15        3S          0.02845   0.03280   0.00751   0.00384  -0.00161
  16        3PX         0.00698  -0.01590  -0.00125  -0.00417  -0.00251
  17        3PY        -0.01804  -0.01345  -0.00364  -0.00066   0.00421
  18        3PZ        -0.00359  -0.00174  -0.00022   0.00014  -0.00026
  19 3   C  1S          0.98651   0.03896   0.00423   0.00022   0.00029
  20        2S          0.09838   0.00399   0.00030   0.00001  -0.00033
  21        2PX        -0.00095   0.00089   0.00036   0.00007   0.00007
  22        2PY        -0.00032  -0.00060   0.00098  -0.00005  -0.00004
  23        2PZ        -0.00015  -0.00004   0.00012  -0.00003   0.00002
  24        3S         -0.08543  -0.01236  -0.00709  -0.00024   0.00698
  25        3PX         0.01546   0.00558   0.00468   0.00030  -0.00303
  26        3PY         0.00565   0.00449   0.00057   0.00192  -0.00109
  27        3PZ         0.00045   0.00005  -0.00110   0.00037   0.00038
  28 4   C  1S         -0.00020  -0.00442  -0.00969  -0.00410   0.98727
  29        2S         -0.00010  -0.00311  -0.00322  -0.00361   0.10026
  30        2PX         0.00002  -0.00120  -0.00103   0.00226  -0.00018
  31        2PY         0.00012  -0.00096   0.00147   0.00020   0.00011
  32        2PZ         0.00009  -0.00011   0.00031   0.00087  -0.00000
  33        3S          0.00233   0.01978   0.00617   0.02035  -0.08783
  34        3PX         0.00037   0.01654   0.00438  -0.01574   0.00363
  35        3PY         0.00354   0.01504  -0.00706  -0.00199  -0.00432
  36        3PZ        -0.00065   0.00182   0.00027  -0.00610   0.00059
  37 5   C  1S         -0.00364  -0.00080  -0.00317  -0.00054   0.00046
  38        2S         -0.00409  -0.00078  -0.00475  -0.00028   0.00043
  39        2PX         0.00044   0.00026   0.00204   0.00010   0.00014
  40        2PY        -0.00145  -0.00004   0.00081  -0.00004   0.00027
  41        2PZ        -0.00039  -0.00002  -0.00065  -0.00002   0.00018
  42        3S          0.02789   0.00845   0.03061   0.00182  -0.00374
  43        3PX        -0.00696  -0.00356  -0.01797  -0.00066   0.00312
  44        3PY         0.01684   0.00395  -0.00357   0.00113  -0.00431
  45        3PZ         0.00485   0.00174   0.00644   0.00025  -0.00217
  46 6   C  1S         -0.00081  -0.00249  -0.00258  -0.00564  -0.00255
  47        2S         -0.00067  -0.00139  -0.00168  -0.00176  -0.00076
  48        2PX         0.00000   0.00009  -0.00020   0.00071   0.00019
  49        2PY        -0.00026  -0.00131  -0.00028  -0.00044  -0.00002
  50        2PZ        -0.00003   0.00003   0.00030   0.00027   0.00020
  51        3S          0.00506   0.00205   0.01280   0.00286   0.00733
  52        3PX         0.00114  -0.00117   0.01280  -0.00008  -0.00946
  53        3PY         0.00094   0.00171  -0.00338   0.00229   0.00734
  54        3PZ        -0.00166  -0.00073  -0.00370  -0.00024  -0.00125
  55 7   C  1S         -0.00417   0.00163   0.98718  -0.00024   0.00916
  56        2S         -0.00067   0.00071   0.09849   0.00001  -0.00147
  57        2PX        -0.00082  -0.00026  -0.00041  -0.00005   0.00109
  58        2PY        -0.00089   0.00011   0.00096  -0.00004  -0.00098
  59        2PZ        -0.00003   0.00008   0.00045  -0.00011   0.00003
  60        3S         -0.00573  -0.00334  -0.08077  -0.00051   0.00801
  61        3PX         0.00255   0.00024  -0.00129   0.00016  -0.00574
  62        3PY        -0.00355  -0.00401  -0.01315  -0.00046   0.00605
  63        3PZ        -0.00089  -0.00012  -0.00368   0.00026   0.00282
  64 8   H  1S         -0.00020  -0.00129  -0.00049  -0.00026  -0.00069
  65        2S         -0.00039   0.00761  -0.00158   0.00006   0.00128
  66 9   H  1S         -0.00003  -0.00002   0.00005  -0.00005  -0.00039
  67        2S          0.00374   0.00421   0.00086   0.00064  -0.00006
  68 10  H  1S         -0.00124  -0.00044  -0.00030  -0.00014  -0.00001
  69        2S          0.00782  -0.00015  -0.00000  -0.00014   0.00074
  70 11  H  1S         -0.00014   0.00015  -0.00019   0.00002  -0.00051
  71        2S          0.00367   0.00133   0.00380   0.00038  -0.00139
  72 12  H  1S         -0.00028  -0.00031  -0.00120  -0.00004   0.00018
  73        2S          0.00014  -0.00112   0.00875   0.00010   0.00255
  74 13  C  1S         -0.00009  -0.00336   0.00021   0.98687   0.00371
  75        2S         -0.00001  -0.00147   0.00009   0.09614  -0.00324
  76        2PX        -0.00003  -0.00040   0.00008   0.00041  -0.00144
  77        2PY         0.00008  -0.00022  -0.00006   0.00008  -0.00002
  78        2PZ        -0.00003   0.00007  -0.00020   0.00010  -0.00047
  79        3S         -0.00031   0.00793   0.00086  -0.06893   0.02657
  80        3PX        -0.00027   0.00404  -0.00011  -0.00846   0.01275
  81        3PY        -0.00145  -0.00261   0.00235  -0.00012   0.00143
  82        3PZ         0.00019   0.00189   0.00107  -0.00303   0.00474
  83 14  H  1S          0.00019   0.00010  -0.00022  -0.00107  -0.00108
  84        2S          0.00046   0.00085  -0.00077   0.01137  -0.00032
  85 15  H  1S         -0.00014  -0.00049   0.00020  -0.00108  -0.00095
  86        2S         -0.00057  -0.00012   0.00095   0.01146   0.00064
  87 16  H  1S         -0.00027  -0.00058  -0.00146  -0.00017  -0.00091
  88        2S          0.00037   0.00071   0.00233  -0.00016   0.00220
  89 17  H  1S         -0.00018  -0.00009  -0.00022  -0.00028  -0.00053
  90        2S          0.00025   0.00085   0.00112   0.00050  -0.00131
                           6         7         8         9        10
                           O         O         O         O         O
     Eigenvalues --   -11.36868 -11.36563 -11.36148  -1.34635  -1.27131
   1 1   C  1S          0.00274   0.00224   0.00056  -0.09910  -0.04856
   2        2S         -0.00410  -0.00107  -0.00042   0.11570   0.05587
   3        2PX        -0.00194   0.00006   0.00002   0.02272  -0.06034
   4        2PY         0.00029   0.00107   0.00037  -0.04133  -0.04433
   5        2PZ        -0.00006  -0.00027   0.00001  -0.00147  -0.00312
   6        3S          0.03351   0.00595   0.00548   0.18841   0.10514
   7        3PX         0.01724  -0.00695   0.00304   0.02065   0.00362
   8        3PY        -0.00758  -0.00611  -0.00167   0.00006   0.00237
   9        3PZ        -0.00056  -0.00113   0.00006   0.00075  -0.00130
  10 2   C  1S          0.98708   0.00392   0.01133  -0.08819   0.04760
  11        2S          0.09908   0.00040   0.00119   0.09964  -0.05168
  12        2PX        -0.00045  -0.00002  -0.00066  -0.02051  -0.05340
  13        2PY        -0.00134   0.00011   0.00080  -0.04437   0.03487
  14        2PZ        -0.00033  -0.00018   0.00031  -0.00940   0.00944
  15        3S         -0.08729   0.00143  -0.00808   0.15687  -0.10792
  16        3PX         0.00533  -0.00281   0.00395   0.00614   0.00724
  17        3PY         0.01736   0.00293   0.00455  -0.00830   0.00474
  18        3PZ         0.00377   0.00098   0.00004  -0.00200   0.00156
  19 3   C  1S          0.00317   0.00066   0.00306  -0.08294   0.11148
  20        2S         -0.00380  -0.00054  -0.00351   0.09741  -0.12753
  21        2PX         0.00163   0.00028   0.00068  -0.04397   0.02651
  22        2PY        -0.00060   0.00002   0.00143  -0.01102   0.03468
  23        2PZ        -0.00020  -0.00017   0.00015   0.00077   0.00525
  24        3S          0.03021   0.00736   0.02898   0.15295  -0.25188
  25        3PX        -0.01931  -0.00259  -0.01004  -0.00295   0.00616
  26        3PY         0.00462  -0.00223  -0.01664   0.00001   0.00327
  27        3PZ         0.00192  -0.00026  -0.00132  -0.00018   0.00180
  28 4   C  1S          0.00499   0.00241  -0.00027  -0.10830  -0.12356
  29        2S          0.00073  -0.00089   0.00015   0.11859   0.13130
  30        2PX        -0.00069  -0.00030  -0.00020   0.01377  -0.04573
  31        2PY        -0.00046   0.00082  -0.00024   0.01055   0.01468
  32        2PZ        -0.00017  -0.00032   0.00001   0.00044  -0.01331
  33        3S         -0.00828   0.01384  -0.00043   0.21955   0.28273
  34        3PX        -0.00315   0.01084   0.00065  -0.01827  -0.01246
  35        3PY        -0.00353  -0.02351  -0.00105   0.03014   0.01460
  36        3PZ         0.00095   0.00780   0.00101  -0.00730  -0.00191
  37 5   C  1S         -0.01103  -0.01840   0.98691  -0.07677   0.10958
  38        2S         -0.00098  -0.00203   0.09891   0.08607  -0.12068
  39        2PX         0.00004   0.00075  -0.00107  -0.03697   0.02592
  40        2PY        -0.00111   0.00041   0.00066   0.01833  -0.03391
  41        2PZ        -0.00017  -0.00041   0.00057   0.01700  -0.01836
  42        3S         -0.00678  -0.00080  -0.08641   0.14387  -0.23133
  43        3PX         0.00532   0.00041   0.01406  -0.00746   0.00587
  44        3PY        -0.00088  -0.00696  -0.00817   0.01262   0.00230
  45        3PZ        -0.00120  -0.00083  -0.00716   0.00482  -0.00394
  46 6   C  1S         -0.00414   0.98794   0.01853  -0.08389  -0.03808
  47        2S         -0.00045   0.10580   0.00213   0.07902   0.03511
  48        2PX        -0.00034   0.00038  -0.00107   0.01323  -0.04290
  49        2PY        -0.00004   0.00017   0.00007   0.02871   0.03438
  50        2PZ         0.00008  -0.00030   0.00043  -0.02526  -0.00733
  51        3S          0.00003  -0.10550  -0.00784   0.22810   0.11222
  52        3PX         0.00109  -0.00387  -0.00176   0.01167   0.00847
  53        3PY         0.00009  -0.00655  -0.00193   0.01001  -0.00026
  54        3PZ        -0.00050   0.00868   0.00079  -0.01375  -0.00980
  55 7   C  1S          0.00038   0.00217   0.00251  -0.07655   0.05601
  56        2S         -0.00007  -0.00196  -0.00417   0.09030  -0.06090
  57        2PX         0.00035   0.00036  -0.00112   0.00024  -0.06021
  58        2PY        -0.00005  -0.00015  -0.00159   0.04220  -0.03292
  59        2PZ        -0.00002  -0.00016   0.00010   0.00801   0.01244
  60        3S          0.00327   0.02320   0.03127   0.12934  -0.13368
  61        3PX         0.00125  -0.01706   0.00828   0.01568   0.01125
  62        3PY         0.00216   0.00757   0.01664  -0.00215  -0.01219
  63        3PZ        -0.00068   0.00784   0.00045  -0.00488  -0.00737
  64 8   H  1S         -0.00020  -0.00031   0.00006   0.03750   0.02679
  65        2S          0.00350   0.00072   0.00081  -0.00413   0.00332
  66 9   H  1S         -0.00146  -0.00044  -0.00041   0.02901  -0.01840
  67        2S          0.00725  -0.00035  -0.00021  -0.00780  -0.00027
  68 10  H  1S         -0.00006  -0.00009  -0.00014   0.02899  -0.04781
  69        2S          0.00391   0.00099   0.00375  -0.00857   0.00199
  70 11  H  1S         -0.00031  -0.00052  -0.00143   0.02507  -0.04249
  71        2S         -0.00055  -0.00014   0.00746  -0.00492   0.00308
  72 12  H  1S          0.00005  -0.00051  -0.00022   0.02623  -0.02165
  73        2S          0.00041   0.00221   0.00358  -0.00903  -0.00080
  74 13  C  1S          0.00189   0.00539   0.00060  -0.05244  -0.09390
  75        2S         -0.00040  -0.00080  -0.00015   0.06311   0.10745
  76        2PX        -0.00009  -0.00046  -0.00002   0.04727   0.06882
  77        2PY        -0.00028   0.00051  -0.00007   0.00279   0.00414
  78        2PZ        -0.00012  -0.00014   0.00001   0.01707   0.02628
  79        3S          0.00142   0.00654   0.00118   0.07610   0.18896
  80        3PX         0.00156   0.00385   0.00070  -0.00772   0.00555
  81        3PY         0.00305   0.00436   0.00070  -0.00958  -0.00016
  82        3PZ         0.00015   0.00055  -0.00003  -0.00310   0.00330
  83 14  H  1S         -0.00048  -0.00068  -0.00014   0.02077   0.03977
  84        2S         -0.00066  -0.00060  -0.00015   0.00053  -0.00072
  85 15  H  1S          0.00028   0.00032   0.00009   0.01845   0.03816
  86        2S          0.00135   0.00099   0.00014  -0.00676  -0.00216
  87 16  H  1S         -0.00015   0.00186   0.00025   0.03237   0.01370
  88        2S          0.00043   0.01311   0.00062  -0.01246  -0.00326
  89 17  H  1S          0.00003   0.00179  -0.00005   0.02782   0.01912
  90        2S          0.00037   0.01308   0.00108  -0.00749   0.00331
                          11        12        13        14        15
                           O         O         O         O         O
     Eigenvalues --    -1.24839  -1.14707  -1.09614  -1.02291  -0.92189
   1 1   C  1S          0.09924   0.06778   0.10350   0.03436   0.03530
   2        2S         -0.11231  -0.07634  -0.11268  -0.03785  -0.03513
   3        2PX        -0.06826  -0.07972   0.03329   0.10972  -0.11931
   4        2PY        -0.01542  -0.02273  -0.00899   0.11015  -0.17909
   5        2PZ         0.00060  -0.01074   0.00417  -0.00049  -0.01703
   6        3S         -0.22802  -0.17676  -0.30691  -0.11095  -0.15632
   7        3PX         0.00736  -0.02832   0.01115   0.03809  -0.04522
   8        3PY         0.00276  -0.00357   0.00384   0.04799  -0.08526
   9        3PZ         0.00110  -0.00570   0.00270   0.00257  -0.00788
  10 2   C  1S          0.12270   0.05258  -0.03979  -0.09231  -0.00314
  11        2S         -0.13319  -0.05514   0.04161   0.09463   0.00412
  12        2PX         0.03238   0.08992   0.14035   0.01125   0.19439
  13        2PY         0.02784  -0.02021  -0.03704   0.04333  -0.08286
  14        2PZ         0.00989  -0.00643  -0.00933   0.00141  -0.01594
  15        3S         -0.28133  -0.13924   0.11151   0.28829   0.00375
  16        3PX         0.01045   0.01919   0.03435   0.00480   0.08176
  17        3PY         0.01038   0.00554  -0.01348   0.00901  -0.04141
  18        3PZ         0.00488   0.00186  -0.00339  -0.00498  -0.00868
  19 3   C  1S          0.05261  -0.07859  -0.09240   0.04150  -0.02325
  20        2S         -0.05963   0.08729   0.10218  -0.04488   0.02511
  21        2PX         0.04224   0.03227  -0.01325  -0.06649  -0.07150
  22        2PY        -0.07000  -0.06506   0.09392   0.12979   0.19321
  23        2PZ        -0.01167  -0.01678   0.01677   0.03104   0.04599
  24        3S         -0.12555   0.21494   0.27150  -0.14088   0.09155
  25        3PX         0.00430   0.00598  -0.00514  -0.01990  -0.04308
  26        3PY        -0.00405  -0.01615   0.02819   0.05060   0.09494
  27        3PZ         0.00008  -0.00726   0.00549   0.01422   0.02461
  28 4   C  1S         -0.00995  -0.04291  -0.00222   0.06809  -0.07045
  29        2S          0.01325   0.04333   0.00198  -0.06858   0.07152
  30        2PX        -0.00886  -0.14399  -0.01554  -0.12259   0.02100
  31        2PY        -0.07564   0.01472  -0.13025  -0.04567   0.09864
  32        2PZ         0.00812  -0.05449   0.02245  -0.05332  -0.02764
  33        3S          0.00739   0.12944  -0.00127  -0.21439   0.26816
  34        3PX        -0.01029  -0.02365  -0.00205  -0.05657   0.02477
  35        3PY         0.01871  -0.01220  -0.03408  -0.01077   0.06587
  36        3PZ        -0.00296  -0.00869   0.00752  -0.02695  -0.01422
  37 5   C  1S         -0.06093  -0.07464   0.08125   0.03763   0.05791
  38        2S          0.06652   0.07864  -0.08522  -0.03863  -0.05701
  39        2PX        -0.05255   0.03296   0.05120  -0.07377  -0.10977
  40        2PY        -0.05679   0.06013   0.10106  -0.11724  -0.09080
  41        2PZ         0.01174   0.00130   0.00141   0.00043   0.01234
  42        3S          0.13490   0.19364  -0.22766  -0.11565  -0.21326
  43        3PX        -0.00650   0.00077   0.01718  -0.01921  -0.04606
  44        3PY         0.00799   0.01047   0.02404  -0.04566  -0.04183
  45        3PZ         0.00379   0.00502  -0.00149  -0.00481   0.00193
  46 6   C  1S         -0.10297   0.09099  -0.10527   0.02405   0.05862
  47        2S          0.09391  -0.08141   0.09382  -0.02107  -0.04864
  48        2PX         0.03746  -0.04541  -0.03776   0.04395   0.05358
  49        2PY        -0.01234   0.01647  -0.00045  -0.08142   0.04275
  50        2PZ        -0.02578   0.00285   0.00530  -0.01925  -0.06040
  51        3S          0.30306  -0.29952   0.36131  -0.08932  -0.25318
  52        3PX         0.00789  -0.01397   0.00012  -0.00084   0.02070
  53        3PY         0.01202  -0.00715   0.00300  -0.02679   0.02069
  54        3PZ        -0.01668   0.00793  -0.00730  -0.00680  -0.03088
  55 7   C  1S         -0.12117   0.04558   0.06406  -0.08523  -0.06545
  56        2S          0.13706  -0.04922  -0.06901   0.08830   0.06845
  57        2PX        -0.00549   0.08083  -0.13284   0.01425   0.02873
  58        2PY         0.03225   0.01585  -0.02017  -0.04909  -0.03334
  59        2PZ         0.01345  -0.03495   0.05098  -0.01218  -0.03234
  60        3S          0.25752  -0.11709  -0.19474   0.28243   0.25497
  61        3PX         0.01227   0.01050  -0.02430  -0.00852   0.00727
  62        3PY         0.00035  -0.00330  -0.01137  -0.01490  -0.00897
  63        3PZ         0.00018  -0.01058   0.00852   0.00221  -0.01104
  64 8   H  1S         -0.04511  -0.03033  -0.07822  -0.01128  -0.06873
  65        2S          0.00152  -0.00291  -0.02371   0.00110  -0.03607
  66 9   H  1S         -0.05205  -0.02789   0.02678   0.08144  -0.00890
  67        2S         -0.00264  -0.00781   0.00841   0.03219  -0.00439
  68 10  H  1S         -0.02400   0.05048   0.06849  -0.03607   0.02026
  69        2S         -0.00041   0.01081   0.01856  -0.01347   0.01026
  70 11  H  1S          0.02495   0.04341  -0.05009  -0.02988  -0.07204
  71        2S          0.00112   0.01081  -0.01417  -0.01294  -0.03616
  72 12  H  1S          0.05485  -0.02853  -0.04098   0.08222   0.07387
  73        2S         -0.00071  -0.00897  -0.01183   0.03203   0.03550
  74 13  C  1S         -0.00966  -0.13176  -0.00955  -0.10769   0.03866
  75        2S          0.01044   0.14493   0.01087   0.11468  -0.03788
  76        2PX         0.00610   0.04634   0.00039  -0.05090   0.10523
  77        2PY        -0.01321   0.00575  -0.03663  -0.01366   0.05201
  78        2PZ         0.00454   0.01712   0.00739  -0.02076   0.02694
  79        3S          0.02005   0.34047   0.02802   0.33032  -0.15291
  80        3PX         0.00234   0.01489   0.00069  -0.01848   0.04477
  81        3PY        -0.01208   0.01092  -0.01962  -0.00968   0.02691
  82        3PZ         0.00076   0.00538   0.00464  -0.00937   0.00865
  83 14  H  1S          0.00070   0.07219  -0.00736   0.08558  -0.04032
  84        2S          0.00019   0.00779  -0.00518   0.03058  -0.02208
  85 15  H  1S          0.00746   0.07017   0.01920   0.09465  -0.08495
  86        2S          0.00098   0.01193   0.00871   0.03228  -0.05010
  87 16  H  1S          0.04142  -0.04910   0.05455  -0.02395  -0.05830
  88        2S         -0.00835  -0.00268   0.00870  -0.00758  -0.03038
  89 17  H  1S          0.04374  -0.03887   0.06902   0.00360  -0.07594
  90        2S         -0.00088   0.00020   0.01747   0.00816  -0.04021
                          16        17        18        19        20
                           O         O         O         O         O
     Eigenvalues --    -0.90730  -0.87749  -0.81958  -0.80835  -0.78531
   1 1   C  1S         -0.04762   0.01869   0.01927   0.00814  -0.01303
   2        2S          0.04599  -0.02187  -0.02452  -0.01342   0.01375
   3        2PX        -0.17996  -0.00460  -0.15955  -0.05375   0.01023
   4        2PY         0.08011   0.07477   0.06319   0.19190   0.01974
   5        2PZ        -0.01173   0.00805   0.02187  -0.02543   0.00793
   6        3S          0.19173  -0.07442  -0.04792   0.00817   0.04081
   7        3PX        -0.10370  -0.00471  -0.12445  -0.03117  -0.00355
   8        3PY         0.06402   0.06053   0.06075   0.15444   0.02131
   9        3PZ        -0.00675   0.00557   0.01656  -0.01584  -0.00351
  10 2   C  1S          0.04897  -0.03277  -0.01001   0.00486   0.02339
  11        2S         -0.05280   0.02789   0.00430  -0.00529  -0.02731
  12        2PX         0.05403   0.02923   0.15278   0.00690  -0.04719
  13        2PY         0.05175   0.15227   0.12334   0.04464   0.12360
  14        2PZ         0.00007   0.01857   0.03487  -0.01120   0.02390
  15        3S         -0.16473   0.14455   0.07931  -0.02147  -0.05392
  16        3PX         0.03007   0.02154   0.08194   0.02215  -0.03008
  17        3PY         0.03412   0.08961   0.09723   0.02989   0.07808
  18        3PZ         0.00158   0.00929   0.03028  -0.01012   0.01791
  19 3   C  1S         -0.05632   0.02387   0.01919  -0.01273  -0.00420
  20        2S          0.05502  -0.02915  -0.02192   0.01697  -0.00069
  21        2PX         0.17071   0.11349   0.00238  -0.07647   0.22034
  22        2PY         0.03399   0.08136   0.09212  -0.11401   0.02580
  23        2PZ        -0.01232  -0.00469   0.04132  -0.01401  -0.01110
  24        3S          0.23470  -0.09319  -0.06627   0.02740   0.05789
  25        3PX         0.11175   0.09393   0.00169  -0.06621   0.19158
  26        3PY         0.02158   0.06319   0.06500  -0.08467   0.04158
  27        3PZ        -0.00962  -0.00355   0.02976  -0.01274  -0.01028
  28 4   C  1S          0.03672  -0.05349   0.00972  -0.00522  -0.01113
  29        2S         -0.03579   0.05188  -0.01011   0.00692   0.00929
  30        2PX        -0.02538  -0.09262  -0.00297  -0.18876   0.13854
  31        2PY         0.12949  -0.10120   0.03454  -0.06569  -0.09411
  32        2PZ        -0.02482   0.00474   0.05980  -0.09706   0.02116
  33        3S         -0.14402   0.20830  -0.03738   0.04113   0.03925
  34        3PX        -0.02647  -0.05085   0.00787  -0.13678   0.12469
  35        3PY         0.09331  -0.06124   0.01256  -0.02576  -0.06830
  36        3PZ        -0.02281   0.00530   0.04775  -0.07514   0.02299
  37 5   C  1S          0.04304  -0.03151  -0.02351   0.00351   0.02308
  38        2S         -0.04641   0.02559   0.02630   0.00135  -0.02234
  39        2PX         0.08830   0.09750  -0.09911  -0.13141  -0.05754
  40        2PY         0.05062  -0.13676  -0.11263   0.14039  -0.00889
  41        2PZ        -0.00603  -0.06599   0.04187   0.06695   0.01883
  42        3S         -0.14093   0.14765   0.07121  -0.04971  -0.09441
  43        3PX         0.04369   0.06139  -0.04574  -0.11153  -0.05395
  44        3PY         0.00868  -0.05979  -0.05601   0.08421   0.00421
  45        3PZ        -0.00531  -0.03784   0.03170   0.04886   0.01243
  46 6   C  1S         -0.01367   0.00229  -0.02738   0.00758   0.01627
  47        2S          0.00797  -0.00354   0.02168  -0.00495  -0.00697
  48        2PX         0.07351  -0.14917   0.04459   0.03443   0.08817
  49        2PY        -0.13901   0.02673   0.07749  -0.06533   0.14794
  50        2PZ         0.01450  -0.01051   0.14797  -0.10373  -0.16449
  51        3S          0.07236  -0.00669   0.11164  -0.03613  -0.12745
  52        3PX         0.02697  -0.07749   0.04629   0.01254   0.05912
  53        3PY        -0.06323  -0.00023   0.05797  -0.04069   0.10580
  54        3PZ         0.00692  -0.01349   0.12586  -0.08056  -0.12719
  55 7   C  1S         -0.03553   0.01036   0.01675  -0.01503  -0.03068
  56        2S          0.03238  -0.01074  -0.01199   0.01885   0.03392
  57        2PX        -0.12225   0.09966   0.11961  -0.06904  -0.05075
  58        2PY        -0.14123  -0.08855   0.20214   0.11803   0.11205
  59        2PZ         0.04255  -0.07699   0.03948   0.03551   0.00974
  60        3S          0.13925  -0.03933  -0.09873   0.02846   0.10328
  61        3PX        -0.06733   0.06600   0.07196  -0.05497  -0.03678
  62        3PY        -0.09073  -0.07927   0.15952   0.08881   0.09852
  63        3PZ         0.02397  -0.05315   0.03346   0.02656   0.01514
  64 8   H  1S          0.13171   0.01603   0.07227   0.10776   0.01662
  65        2S          0.06857   0.00576   0.04574   0.06625   0.00746
  66 9   H  1S         -0.00450   0.11055   0.10697   0.02166   0.04490
  67        2S          0.00356   0.06465   0.06720   0.01488   0.03711
  68 10  H  1S          0.13657   0.05459   0.00322  -0.05761   0.14152
  69        2S          0.06664   0.02934   0.00410  -0.03572   0.08565
  70 11  H  1S         -0.00623   0.11326  -0.00718  -0.11861  -0.05146
  71        2S          0.00114   0.06814  -0.00932  -0.07580  -0.02865
  72 12  H  1S          0.09133   0.05150  -0.13431  -0.06307  -0.04368
  73        2S          0.04566   0.02519  -0.07965  -0.04049  -0.02744
  74 13  C  1S         -0.00043   0.04098  -0.00142   0.01314  -0.00352
  75        2S         -0.00068  -0.03699   0.00020  -0.00492  -0.00161
  76        2PX        -0.02313   0.16317  -0.03860   0.21125  -0.10716
  77        2PY         0.08452  -0.06843   0.10328  -0.02758  -0.14776
  78        2PZ        -0.01776   0.07886  -0.00057   0.06915  -0.04399
  79        3S          0.00685  -0.18366   0.02181  -0.11665   0.06375
  80        3PX        -0.00673   0.07993  -0.01877   0.11603  -0.05545
  81        3PY         0.04729  -0.04772   0.08941  -0.02188  -0.11715
  82        3PZ        -0.00588   0.04372   0.00393   0.03532  -0.02579
  83 14  H  1S          0.04942  -0.12189   0.06724  -0.09676  -0.03446
  84        2S          0.03509  -0.07213   0.04296  -0.06481  -0.02070
  85 15  H  1S         -0.03050  -0.05064  -0.04253  -0.06611   0.11698
  86        2S         -0.01714  -0.02943  -0.02446  -0.04766   0.07788
  87 16  H  1S          0.01255  -0.02265   0.11845  -0.06943  -0.08894
  88        2S          0.00636  -0.01193   0.07625  -0.04956  -0.06783
  89 17  H  1S          0.03768   0.04282  -0.04130   0.01317  -0.11246
  90        2S          0.02305   0.02787  -0.03129   0.00505  -0.08337
                          21        22        23        24        25
                           O         O         O         O         O
     Eigenvalues --    -0.76257  -0.73034  -0.70313  -0.69248  -0.67178
   1 1   C  1S          0.03742  -0.00308  -0.01126  -0.02024   0.01587
   2        2S         -0.03769   0.00577   0.01501   0.02262  -0.01729
   3        2PX         0.13950   0.15334   0.16142   0.02211   0.01280
   4        2PY        -0.08390  -0.00319   0.08553  -0.05177   0.20647
   5        2PZ        -0.01606   0.05257  -0.02224  -0.08388  -0.00818
   6        3S         -0.13616   0.00742   0.03086   0.05731  -0.03787
   7        3PX         0.15134   0.14229   0.07738   0.06035  -0.05943
   8        3PY        -0.11572  -0.03568   0.06549  -0.03554   0.21356
   9        3PZ        -0.01116   0.05625  -0.02543  -0.06492  -0.01299
  10 2   C  1S         -0.03316   0.00314   0.01653  -0.00364  -0.00023
  11        2S          0.03338  -0.00148  -0.01489   0.00658   0.00141
  12        2PX        -0.08949  -0.15817  -0.14754  -0.00328   0.02342
  13        2PY         0.15149  -0.01566  -0.11377  -0.08981  -0.14333
  14        2PZ         0.01932   0.05647  -0.04779  -0.07626  -0.05947
  15        3S          0.11408  -0.03199  -0.06209  -0.02809  -0.00185
  16        3PX        -0.01875  -0.09198  -0.13140   0.00629  -0.01270
  17        3PY         0.15877  -0.03082  -0.17327  -0.09294  -0.17321
  18        3PZ         0.01434   0.04860  -0.05247  -0.07712  -0.05798
  19 3   C  1S          0.03099  -0.01220  -0.01233   0.01948  -0.01009
  20        2S         -0.03675   0.01153   0.01341  -0.02366   0.01214
  21        2PX         0.08670   0.12933   0.13311   0.02262  -0.10353
  22        2PY        -0.09960  -0.05532   0.12401   0.17169   0.08768
  23        2PZ        -0.03727   0.04055  -0.00735  -0.00538  -0.01406
  24        3S         -0.08797   0.05926   0.04246  -0.05077   0.02258
  25        3PX         0.03764   0.13881   0.19641   0.02848  -0.09035
  26        3PY        -0.07700  -0.02374   0.13112   0.10988   0.04875
  27        3PZ        -0.02514   0.03660  -0.01528  -0.01264  -0.01563
  28 4   C  1S         -0.02187  -0.00729   0.01288   0.02128  -0.00115
  29        2S          0.02379   0.00938  -0.01273  -0.01651  -0.00228
  30        2PX        -0.02556  -0.15899  -0.03742  -0.06388  -0.04883
  31        2PY         0.02409   0.02171  -0.10743   0.11008  -0.18674
  32        2PZ        -0.07652   0.00756  -0.01694  -0.15590   0.02683
  33        3S          0.08093   0.04402  -0.04832  -0.07813   0.02948
  34        3PX        -0.06180  -0.18340  -0.01549  -0.08256  -0.00783
  35        3PY         0.00983   0.02635  -0.12260   0.15084  -0.19282
  36        3PZ        -0.07026  -0.00458  -0.00624  -0.15865   0.03459
  37 5   C  1S         -0.00971   0.02581   0.01182  -0.00910   0.01630
  38        2S          0.00861  -0.02543  -0.01197   0.00823  -0.01873
  39        2PX         0.10907  -0.03406  -0.14136   0.07177   0.14166
  40        2PY         0.06431   0.02548  -0.12354  -0.16352  -0.02914
  41        2PZ        -0.02385   0.11083   0.00104  -0.05470  -0.09075
  42        3S          0.03637  -0.09339  -0.03293   0.03817  -0.04499
  43        3PX         0.09206  -0.06593  -0.14357   0.12474   0.15642
  44        3PY         0.01800   0.02755  -0.04807  -0.15436  -0.04425
  45        3PZ        -0.03052   0.11555   0.01354  -0.07172  -0.09473
  46 6   C  1S         -0.00625   0.02527  -0.01415  -0.00919  -0.01265
  47        2S          0.00666  -0.02496   0.01268   0.00578   0.01632
  48        2PX         0.13049   0.10533  -0.14007   0.14724   0.12833
  49        2PY        -0.00192   0.04425  -0.00251  -0.15121   0.21204
  50        2PZ        -0.07211   0.19837  -0.02856   0.02043  -0.02074
  51        3S          0.01311  -0.07213   0.05196   0.07299  -0.01265
  52        3PX         0.10198   0.12760  -0.11433   0.07646   0.15912
  53        3PY         0.01688   0.08607  -0.03598  -0.10953   0.20005
  54        3PZ        -0.05232   0.18829  -0.02907   0.01975   0.01395
  55 7   C  1S         -0.00031  -0.02383  -0.00431   0.00487  -0.00117
  56        2S         -0.00217   0.02378   0.01094  -0.00748  -0.00383
  57        2PX        -0.14810   0.06367   0.13344  -0.06489  -0.10628
  58        2PY         0.02127  -0.06172   0.10354   0.16277  -0.06682
  59        2PZ         0.06699   0.06940  -0.07647   0.10063   0.02039
  60        3S          0.00658   0.08023  -0.02915  -0.01943   0.04339
  61        3PX        -0.09668   0.03859   0.08967  -0.06272  -0.06454
  62        3PY         0.03783  -0.08744   0.07757   0.21560  -0.04285
  63        3PZ         0.04710   0.04902  -0.05646   0.09899   0.00431
  64 8   H  1S         -0.13285  -0.06548   0.00100  -0.02226   0.11167
  65        2S         -0.07229  -0.04489  -0.00529  -0.02104   0.07899
  66 9   H  1S          0.10865  -0.03977  -0.12992  -0.06607  -0.10351
  67        2S          0.06034  -0.02859  -0.08134  -0.04986  -0.07394
  68 10  H  1S         -0.00097   0.08231   0.13909   0.04181  -0.03785
  69        2S          0.01018   0.04754   0.08350   0.03678  -0.02996
  70 11  H  1S          0.05459  -0.08009  -0.05592   0.11934   0.10478
  71        2S          0.03083  -0.04583  -0.02902   0.07728   0.07875
  72 12  H  1S         -0.03092   0.05734  -0.04811  -0.14551   0.03919
  73        2S         -0.01650   0.02878  -0.03843  -0.09449   0.03301
  74 13  C  1S         -0.00882  -0.01874   0.00017  -0.00962  -0.00831
  75        2S          0.01315   0.02802   0.00039   0.01468   0.01043
  76        2PX         0.08955   0.13660   0.03069   0.09694   0.03863
  77        2PY         0.22269  -0.07016   0.18057  -0.12259   0.03986
  78        2PZ        -0.01969   0.09440  -0.01706  -0.01274   0.01709
  79        3S         -0.01880  -0.01597   0.00037  -0.01364   0.03567
  80        3PX         0.03907   0.05311   0.03124   0.05617   0.02837
  81        3PY         0.20565  -0.06987   0.19687  -0.15474   0.08008
  82        3PZ        -0.03503   0.05784  -0.01926  -0.02104   0.00756
  83 14  H  1S          0.10361  -0.08802   0.10390  -0.09849   0.02435
  84        2S          0.05793  -0.07712   0.07562  -0.07238   0.01285
  85 15  H  1S         -0.14853   0.00499  -0.12105   0.05612  -0.04333
  86        2S         -0.10541  -0.01304  -0.08161   0.03129  -0.03735
  87 16  H  1S         -0.02423   0.12957  -0.02685   0.02702   0.03789
  88        2S         -0.02498   0.10768  -0.02573   0.01997   0.02160
  89 17  H  1S         -0.05594  -0.09835   0.07621   0.02198  -0.17596
  90        2S         -0.04899  -0.06243   0.05491   0.01159  -0.16086
                          26        27        28        29        30
                           O         O         O         V         V
     Eigenvalues --    -0.63935  -0.57440  -0.50522  -0.18351  -0.04799
   1 1   C  1S         -0.00543   0.00370   0.00044   0.00026   0.00598
   2        2S          0.00713  -0.00758  -0.00475   0.00281  -0.00858
   3        2PX         0.00171  -0.01825  -0.01328   0.01427   0.00795
   4        2PY         0.01272   0.03459   0.01836   0.00094  -0.00816
   5        2PZ         0.16587  -0.13692   0.10316  -0.25629  -0.12451
   6        3S          0.02131   0.01662   0.01141  -0.01956  -0.00698
   7        3PX        -0.01086  -0.02001  -0.00506   0.04521   0.04091
   8        3PY         0.01190   0.04764   0.02119   0.02345  -0.07619
   9        3PZ         0.16467  -0.14957   0.12692  -0.39565  -0.26153
  10 2   C  1S         -0.00811   0.00409   0.00578  -0.00120   0.01194
  11        2S          0.01067  -0.00362  -0.00637  -0.00223  -0.00736
  12        2PX         0.01103   0.03491   0.00875  -0.00739   0.01047
  13        2PY        -0.10738   0.00786  -0.02903   0.00558  -0.03004
  14        2PZ         0.21342  -0.01601   0.23638   0.00466   0.21663
  15        3S          0.01857  -0.01650  -0.04087   0.02426  -0.15651
  16        3PX        -0.00057   0.04006   0.00309   0.02790  -0.00673
  17        3PY        -0.10980   0.01298  -0.04482  -0.02080  -0.03870
  18        3PZ         0.22526  -0.01286   0.30255  -0.00544   0.45389
  19 3   C  1S          0.00252  -0.00520  -0.00365   0.00445   0.00420
  20        2S         -0.00233   0.00569   0.00265  -0.00461  -0.01207
  21        2PX        -0.01333  -0.01363   0.01098   0.03476  -0.00033
  22        2PY         0.03202  -0.04244  -0.01139  -0.05384   0.00763
  23        2PZ         0.20355   0.12353   0.06234   0.25746  -0.09248
  24        3S         -0.00011   0.01129   0.02011  -0.03983   0.01527
  25        3PX        -0.00980  -0.01706   0.00632   0.05958  -0.09450
  26        3PY         0.00815  -0.05063   0.00208  -0.11577   0.05181
  27        3PZ         0.19784   0.12669   0.07551   0.40943  -0.17665
  28 4   C  1S          0.00410  -0.01184   0.01249   0.01080  -0.01275
  29        2S          0.00086   0.01131  -0.01475  -0.01220   0.01430
  30        2PX        -0.04053   0.12688   0.02345  -0.01490   0.07834
  31        2PY        -0.01117  -0.09799  -0.00517   0.03334  -0.07534
  32        2PZ         0.06946  -0.18693  -0.17711  -0.00267  -0.13019
  33        3S         -0.04022   0.04216  -0.06062  -0.04810   0.07505
  34        3PX        -0.04470   0.13727   0.05068  -0.01173   0.15073
  35        3PY        -0.00164  -0.10860  -0.00249   0.07909  -0.19975
  36        3PZ         0.08858  -0.22733  -0.24272  -0.01453  -0.25076
  37 5   C  1S         -0.00403  -0.00021   0.00063   0.00309   0.00220
  38        2S          0.00346  -0.00160  -0.00205  -0.00523   0.00104
  39        2PX         0.10009   0.06928  -0.06136   0.01179  -0.05140
  40        2PY        -0.08627  -0.03083   0.03736   0.00454   0.02671
  41        2PZ         0.10511   0.21279  -0.17683  -0.01596  -0.13412
  42        3S          0.02535   0.00953   0.00610  -0.01853  -0.08391
  43        3PX         0.12616   0.05384  -0.08325  -0.00280  -0.05360
  44        3PY        -0.09956  -0.03650   0.06330  -0.01194   0.09891
  45        3PZ         0.09767   0.25159  -0.21488  -0.03417  -0.30476
  46 6   C  1S         -0.00064  -0.00592  -0.00152  -0.00407  -0.00072
  47        2S          0.00302   0.00182  -0.00651   0.00122   0.00416
  48        2PX         0.00590  -0.06857   0.01048   0.01043   0.00185
  49        2PY        -0.05975   0.06201  -0.00091   0.01480   0.00683
  50        2PZ        -0.14989   0.01369   0.08218   0.02107   0.00009
  51        3S         -0.02544   0.04362   0.05600   0.03658  -0.01360
  52        3PX        -0.01349  -0.03962   0.03407  -0.02059   0.05022
  53        3PY        -0.05170   0.06235   0.02471   0.04083  -0.06258
  54        3PZ        -0.16380   0.01014   0.09009   0.03841   0.07270
  55 7   C  1S         -0.00051   0.02060   0.01120   0.00273   0.01106
  56        2S          0.00120  -0.02050  -0.01337  -0.00744  -0.01645
  57        2PX        -0.05224   0.11975  -0.03124  -0.09368   0.11626
  58        2PY         0.04296  -0.09132   0.01171   0.02837  -0.05572
  59        2PZ         0.09893   0.09528  -0.18152  -0.18354   0.19400
  60        3S         -0.00645  -0.10082  -0.04807   0.00113  -0.01743
  61        3PX        -0.03732   0.11948  -0.03807  -0.15525   0.26850
  62        3PY         0.07033  -0.12461   0.00324   0.07431  -0.02472
  63        3PZ         0.11184   0.10091  -0.22809  -0.27948   0.38356
  64 8   H  1S          0.01509   0.03572   0.02110  -0.00428   0.03370
  65        2S          0.01375   0.03324   0.02234  -0.00288   0.16926
  66 9   H  1S         -0.04657   0.00933  -0.00147   0.00959   0.01222
  67        2S         -0.04080   0.00773   0.00404   0.02409   0.07369
  68 10  H  1S         -0.00818  -0.02438   0.01152   0.00231   0.01926
  69        2S         -0.00570  -0.02481   0.01417   0.01500   0.08703
  70 11  H  1S          0.06857  -0.01065  -0.00133   0.01951  -0.01156
  71        2S          0.05219  -0.00503   0.00336   0.03890  -0.02131
  72 12  H  1S         -0.05519   0.04165   0.01252   0.00700   0.01249
  73        2S         -0.03715   0.03557   0.01146   0.02672   0.07023
  74 13  C  1S         -0.00085   0.01005  -0.00624   0.00268   0.00780
  75        2S          0.00106  -0.01255   0.00569  -0.00425  -0.00779
  76        2PX        -0.00753   0.02791   0.08851  -0.07221  -0.07746
  77        2PY         0.03355  -0.00519  -0.02407   0.01237   0.00871
  78        2PZ         0.05395  -0.18806  -0.16491   0.17504   0.18721
  79        3S          0.00678  -0.03060   0.02345  -0.01461  -0.05022
  80        3PX        -0.00518   0.04850   0.10003  -0.10331  -0.12924
  81        3PY         0.03440   0.00816  -0.03169   0.02080   0.05417
  82        3PZ         0.05358  -0.19705  -0.19335   0.28175   0.40502
  83 14  H  1S          0.01477   0.02309  -0.00878  -0.01345   0.00620
  84        2S          0.01277   0.03043  -0.00838  -0.01410   0.06727
  85 15  H  1S         -0.02107  -0.00860  -0.00131   0.01327  -0.00275
  86        2S         -0.01638  -0.00195  -0.00327   0.02972   0.00906
  87 16  H  1S         -0.11558   0.01419   0.08973   0.04710  -0.02789
  88        2S         -0.09587   0.02134   0.13210   0.08215  -0.13815
  89 17  H  1S          0.03872   0.00154  -0.01233  -0.02047   0.01029
  90        2S          0.03629   0.00467  -0.00791  -0.03333   0.03294
                          31        32        33        34        35
                           V         V         V         V         V
     Eigenvalues --     0.02614   0.06387   0.10545   0.11319   0.12414
   1 1   C  1S          0.01023   0.04464  -0.00799   0.03138  -0.03373
   2        2S         -0.00803  -0.03757  -0.00796  -0.02157   0.01667
   3        2PX        -0.00166   0.03707  -0.03611   0.03559  -0.09222
   4        2PY        -0.02428  -0.05337   0.11721  -0.11548   0.05766
   5        2PZ         0.15131   0.02282  -0.07990  -0.12954  -0.08330
   6        3S         -0.13550  -0.45416   0.23082  -0.37735   0.42576
   7        3PX         0.04291   0.16191  -0.24260   0.02414  -0.19054
   8        3PY        -0.08348  -0.24510   0.24314  -0.50467   0.34415
   9        3PZ         0.40355   0.04882  -0.21537  -0.34344  -0.19065
  10 2   C  1S          0.00584   0.03291  -0.04434  -0.01956   0.00676
  11        2S         -0.00980  -0.02438   0.01573   0.01442  -0.00238
  12        2PX         0.02599  -0.03980   0.00874  -0.01751  -0.00543
  13        2PY        -0.00644  -0.05742   0.07122  -0.11272  -0.06148
  14        2PZ        -0.03562  -0.06473   0.11024   0.13272   0.11757
  15        3S         -0.04528  -0.38223   0.61492   0.22798  -0.09635
  16        3PX         0.01350  -0.11002   0.03590  -0.06367   0.09128
  17        3PY        -0.04087  -0.22965   0.22646  -0.25567  -0.25849
  18        3PZ        -0.09922  -0.16362   0.33394   0.34763   0.29566
  19 3   C  1S          0.00065   0.04925  -0.01059   0.02350   0.04298
  20        2S         -0.00177  -0.03935  -0.00094  -0.01123  -0.01134
  21        2PX        -0.01055  -0.08382   0.04712   0.00545  -0.14313
  22        2PY         0.02226  -0.03630   0.05951  -0.02155  -0.02585
  23        2PZ        -0.12519   0.04074  -0.11160  -0.15655  -0.12267
  24        3S         -0.01485  -0.52603   0.19816  -0.28402  -0.68246
  25        3PX        -0.02915  -0.33206   0.16295   0.01732  -0.42058
  26        3PY         0.02509  -0.14138   0.07963  -0.05344  -0.15178
  27        3PZ        -0.28109   0.10146  -0.29602  -0.38499  -0.36433
  28 4   C  1S          0.01039   0.01633   0.02058   0.02610   0.02464
  29        2S         -0.01711  -0.00814   0.00330   0.00258  -0.02543
  30        2PX         0.07211  -0.01929  -0.03328  -0.07828  -0.04880
  31        2PY        -0.01900   0.00839   0.07975   0.01699   0.02055
  32        2PZ        -0.23586   0.03523   0.01142   0.09478   0.02397
  33        3S         -0.07488  -0.28805  -0.41615  -0.61235  -0.05039
  34        3PX         0.18652   0.07329  -0.12503  -0.28923  -0.11862
  35        3PY        -0.02486   0.00956   0.16034   0.09096   0.18492
  36        3PZ        -0.51192   0.13855  -0.00026   0.18626  -0.03346
  37 5   C  1S          0.00506   0.03677   0.01328  -0.00215   0.02657
  38        2S         -0.00808  -0.02846  -0.00232   0.00211  -0.00212
  39        2PX         0.07313  -0.07089   0.01960   0.08679  -0.03741
  40        2PY        -0.04050   0.03269   0.02439  -0.03930   0.01863
  41        2PZ         0.18059   0.00188   0.06870   0.08812   0.13991
  42        3S         -0.07477  -0.39053  -0.18120   0.06325  -0.44025
  43        3PX         0.15226  -0.25912   0.03458   0.31189  -0.07099
  44        3PY        -0.08292   0.11241   0.00294  -0.04343   0.11251
  45        3PZ         0.43207   0.06643   0.17821   0.21134   0.38777
  46 6   C  1S          0.02854   0.03880   0.00947   0.00730  -0.04784
  47        2S         -0.02181  -0.02409   0.00216  -0.00974   0.01390
  48        2PX         0.01199   0.04752   0.04185  -0.03795  -0.10649
  49        2PY        -0.01689   0.05432   0.16250  -0.00022  -0.01963
  50        2PZ        -0.02716   0.02458  -0.02048  -0.01126   0.00310
  51        3S         -0.25617  -0.42784  -0.22462  -0.01036   0.63653
  52        3PX         0.02679   0.23302   0.12172  -0.28596  -0.42595
  53        3PY        -0.02302   0.25053   0.63229   0.19465  -0.07219
  54        3PZ        -0.22966   0.05123  -0.07850  -0.11221   0.02789
  55 7   C  1S          0.01923   0.03895   0.01656  -0.06253  -0.00511
  56        2S         -0.02890  -0.02635  -0.00103   0.03270   0.00421
  57        2PX         0.00084  -0.02054  -0.00854  -0.04843  -0.04105
  58        2PY         0.01748   0.07404   0.11887  -0.04195   0.02782
  59        2PZ        -0.14452   0.03672  -0.00812  -0.07167  -0.04201
  60        3S         -0.14288  -0.46021  -0.24221   0.81663   0.12690
  61        3PX        -0.00879  -0.05867  -0.07572  -0.14298  -0.04798
  62        3PY         0.10310   0.27533   0.32232  -0.20508   0.10845
  63        3PZ        -0.32420   0.09896   0.02133  -0.16131  -0.11826
  64 8   H  1S          0.02637   0.03845  -0.03785   0.01058  -0.00364
  65        2S          0.21727   0.60118  -0.59426   0.65363  -0.63072
  66 9   H  1S          0.00536   0.04530  -0.03748   0.02216   0.01509
  67        2S          0.07976   0.58522  -0.65462   0.26738   0.26511
  68 10  H  1S         -0.00895   0.06210  -0.01838   0.00274   0.03220
  69        2S         -0.01040   0.77448  -0.34417   0.11739   0.84640
  70 11  H  1S         -0.00571   0.05453   0.00497  -0.02240   0.01824
  71        2S          0.00178   0.62808   0.14417  -0.29651   0.53316
  72 12  H  1S          0.00652   0.04893   0.03929  -0.02944   0.01760
  73        2S          0.09764   0.64139   0.59594  -0.64393   0.08964
  74 13  C  1S         -0.00571   0.00551   0.03172   0.06254  -0.05250
  75        2S          0.00502  -0.00452  -0.01993  -0.03809   0.02477
  76        2PX        -0.04692   0.08334   0.04066   0.08572  -0.09792
  77        2PY         0.02404   0.00303   0.11985  -0.04571   0.01517
  78        2PZ         0.17963  -0.01688  -0.00584  -0.02397  -0.04566
  79        3S          0.04172  -0.03578  -0.37376  -0.76947   0.65733
  80        3PX        -0.12293   0.34285   0.22985   0.43386  -0.42514
  81        3PY         0.02616   0.02087   0.45060  -0.13090   0.03487
  82        3PZ         0.45914   0.02261  -0.00749  -0.02106  -0.19752
  83 14  H  1S          0.00549   0.00143  -0.01183   0.00759  -0.03090
  84        2S          0.02594   0.18218  -0.19446   0.68542  -0.67778
  85 15  H  1S         -0.00947   0.00171   0.03430   0.03293  -0.00776
  86        2S         -0.02235   0.21686   0.78326   0.47071  -0.49349
  87 16  H  1S          0.09520  -0.03244  -0.00317   0.01757   0.00787
  88        2S          0.57905  -0.07650  -0.00251   0.19851  -0.11881
  89 17  H  1S         -0.00357   0.05065   0.03180  -0.03368  -0.01503
  90        2S          0.09040   0.64108   0.76651  -0.16115  -0.61431
                          36        37        38        39        40
                           V         V         V         V         V
     Eigenvalues --     0.15271   0.17060   0.18158   0.21003   0.21385
   1 1   C  1S         -0.05615   0.02389   0.00712   0.03898  -0.08032
   2        2S          0.01528  -0.01676   0.00697  -0.00626   0.05615
   3        2PX        -0.08392  -0.01763  -0.02743   0.05229  -0.03593
   4        2PY         0.05018   0.09144  -0.00007  -0.04649   0.04647
   5        2PZ        -0.00140   0.05564   0.11163  -0.01988   0.00648
   6        3S          0.83003  -0.22138  -0.10434  -0.79161   0.86663
   7        3PX        -0.36501  -0.20760  -0.15784   0.15414  -0.30238
   8        3PY         0.09217   0.32021  -0.12538  -0.06661   0.38186
   9        3PZ         0.00123   0.18624   0.25606  -0.03822   0.02841
  10 2   C  1S         -0.00957   0.01112  -0.03588   0.02328   0.09958
  11        2S         -0.00546   0.00042   0.02620  -0.02475  -0.05009
  12        2PX         0.01102  -0.06263  -0.01495  -0.05980  -0.06272
  13        2PY         0.06206  -0.04572   0.06499   0.02671  -0.14281
  14        2PZ        -0.03178  -0.07222  -0.03057   0.01299  -0.02000
  15        3S          0.22385  -0.18399   0.52484  -0.12082  -1.23647
  16        3PX         0.10912  -0.28086  -0.03283  -0.39900  -0.33429
  17        3PY         0.18234  -0.15886   0.36702  -0.04015  -0.85811
  18        3PZ        -0.05006  -0.19994  -0.11660   0.04630  -0.09032
  19 3   C  1S          0.02893   0.00305   0.00218  -0.09093  -0.06481
  20        2S         -0.01425   0.00391   0.00913   0.04671   0.04336
  21        2PX        -0.06591  -0.11546  -0.04541   0.09482   0.03830
  22        2PY        -0.01303  -0.07593  -0.04249   0.00846   0.03224
  23        2PZ         0.05257   0.06019   0.03593  -0.00533  -0.00852
  24        3S         -0.44888  -0.11768  -0.02910   1.22926   0.76962
  25        3PX        -0.21238  -0.42811  -0.13499   0.59499   0.35756
  26        3PY        -0.04309  -0.18236  -0.18742   0.07838   0.30002
  27        3PZ         0.14917   0.19747   0.02717  -0.07994  -0.01806
  28 4   C  1S         -0.01295  -0.01274  -0.01459  -0.01816   0.03952
  29        2S         -0.00300   0.00752   0.02716  -0.00070  -0.01611
  30        2PX        -0.04256   0.01566  -0.01178   0.01111  -0.09204
  31        2PY        -0.06722   0.03662   0.01672   0.04487  -0.03145
  32        2PZ        -0.00215  -0.06032  -0.11059   0.01890  -0.02569
  33        3S          0.11698   0.12767   0.06332   0.27919  -0.39725
  34        3PX        -0.21391   0.02337  -0.15692   0.02991  -0.23596
  35        3PY        -0.30953   0.03536   0.04798   0.23902  -0.00800
  36        3PZ         0.03862  -0.15884  -0.43835   0.05989  -0.11127
  37 5   C  1S          0.00576   0.00063   0.03268   0.10646   0.00637
  38        2S         -0.00636  -0.00560   0.00595  -0.05283  -0.01276
  39        2PX        -0.08574   0.01864  -0.06615  -0.13906   0.02872
  40        2PY         0.06560  -0.03917   0.03655   0.02460  -0.06368
  41        2PZ        -0.04691  -0.08535   0.05695   0.03338  -0.01049
  42        3S         -0.06754   0.04357  -0.65537  -1.38506   0.09253
  43        3PX        -0.25823   0.09494  -0.17506  -0.78349  -0.03061
  44        3PY         0.23140  -0.08252   0.12732   0.19476  -0.23688
  45        3PZ        -0.07979  -0.21339   0.14399   0.21616  -0.01724
  46 6   C  1S          0.07990  -0.02382  -0.09346   0.01341  -0.04841
  47        2S         -0.02414   0.01282   0.01790  -0.01726   0.01294
  48        2PX        -0.06868  -0.00890  -0.02111  -0.09233   0.03263
  49        2PY        -0.03864   0.04552  -0.05297  -0.04983   0.01053
  50        2PZ        -0.13516  -0.06805   0.16349  -0.06032  -0.00780
  51        3S         -1.08336   0.24296   1.46921  -0.00486   0.65928
  52        3PX        -0.25677   0.12814  -0.08440  -0.31775   0.09911
  53        3PY        -0.17396   0.17911  -0.18287  -0.17401   0.10719
  54        3PZ        -0.57194  -0.27487   0.61357  -0.31810  -0.07323
  55 7   C  1S         -0.01288  -0.01755   0.00238  -0.04208   0.03324
  56        2S         -0.01060   0.00207   0.01018   0.02990  -0.00047
  57        2PX        -0.02359   0.05641   0.00782   0.02467   0.00422
  58        2PY        -0.00855  -0.16638   0.00427   0.00018   0.05478
  59        2PZ         0.08133   0.00697  -0.02307   0.01704  -0.00249
  60        3S          0.19644   0.31683  -0.02011   0.33948  -0.61627
  61        3PX        -0.07950   0.26518   0.19315   0.21582   0.09535
  62        3PY        -0.06409  -0.60057   0.06113  -0.18187   0.15638
  63        3PZ         0.31474  -0.04972  -0.23831   0.03880  -0.02767
  64 8   H  1S         -0.04882  -0.01550  -0.03059  -0.00906  -0.04507
  65        2S         -0.74823  -0.34630  -0.04395   0.46405  -0.94752
  66 9   H  1S         -0.00549   0.00505  -0.00939   0.01526   0.03807
  67        2S         -0.30900   0.38563  -0.54621   0.21232   1.55046
  68 10  H  1S          0.01244   0.02402   0.00625  -0.01286  -0.01609
  69        2S          0.46482   0.64614   0.25273  -1.09273  -0.76484
  70 11  H  1S          0.02239  -0.01174   0.00453   0.03192   0.00603
  71        2S          0.42888  -0.28293   0.55782   1.47300  -0.15453
  72 12  H  1S         -0.01313  -0.02420   0.02353  -0.02570   0.00289
  73        2S         -0.05806  -0.87273   0.03576  -0.36960   0.42019
  74 13  C  1S          0.06998   0.02773   0.08206  -0.00054   0.03442
  75        2S         -0.03924  -0.01157  -0.02778  -0.00371  -0.00534
  76        2PX         0.00404   0.01283   0.07408  -0.02602   0.05976
  77        2PY        -0.07339   0.22711  -0.03390   0.06773  -0.02060
  78        2PZ         0.01653   0.00529   0.06924  -0.03175   0.03970
  79        3S         -0.87508  -0.36247  -1.19550   0.04402  -0.54910
  80        3PX         0.03759   0.02763   0.12618  -0.09894   0.13695
  81        3PY        -0.30417   0.93436  -0.10806   0.23259  -0.17003
  82        3PZ         0.03201  -0.00224   0.24465  -0.10486   0.08528
  83 14  H  1S          0.06387  -0.02518   0.01161  -0.02372   0.03722
  84        2S          0.83149  -0.77034   0.80169  -0.38946   0.52839
  85 15  H  1S         -0.01927   0.04588   0.04906   0.01646  -0.00278
  86        2S          0.05846   1.18715   0.59749   0.21200   0.17884
  87 16  H  1S          0.03513   0.01246   0.00518  -0.00329   0.01633
  88        2S          1.17103   0.17575  -1.09627   0.46641  -0.18546
  89 17  H  1S         -0.04962  -0.00208  -0.02687   0.00344  -0.01558
  90        2S         -0.11703   0.08005  -0.75008  -0.36301  -0.14270
                          41        42        43        44        45
                           V         V         V         V         V
     Eigenvalues --     0.22240   0.26450   0.27703   0.34755   0.36209
   1 1   C  1S         -0.04112  -0.00683   0.05581   0.08013   0.04074
   2        2S          0.01558   0.00801  -0.01577  -0.01936   0.00980
   3        2PX        -0.04046   0.14135  -0.00530  -0.14170  -0.01526
   4        2PY         0.07530   0.06318   0.11802   0.04844  -0.01573
   5        2PZ         0.02027   0.01933  -0.07962   0.01216   0.02039
   6        3S          0.63216   0.16061  -0.95486  -1.43493  -1.35937
   7        3PX        -0.05341   0.84227   0.34807  -0.60244   0.42097
   8        3PY         0.40325   0.50571   0.70106   0.45950   0.13737
   9        3PZ         0.04409   0.04218  -0.24005   0.15901   0.16114
  10 2   C  1S          0.02801   0.06524   0.03356  -0.07667   0.04638
  11        2S         -0.02488   0.00607  -0.00132   0.03309   0.00737
  12        2PX         0.05145   0.02690  -0.07161  -0.04459  -0.11704
  13        2PY         0.01153  -0.02799   0.05895  -0.14876   0.09163
  14        2PZ        -0.00275   0.03763   0.09296  -0.03051  -0.01112
  15        3S         -0.27667  -1.47091  -0.75244   1.34276  -1.31983
  16        3PX         0.21208   0.24550  -0.49546  -0.58248  -1.06347
  17        3PY        -0.16333  -0.04946   0.48298  -0.70416   0.90209
  18        3PZ        -0.01763   0.07459   0.35942  -0.21145   0.12258
  19 3   C  1S         -0.01136   0.02473  -0.07263  -0.00542  -0.05643
  20        2S          0.02490   0.00202   0.02372  -0.00231  -0.00657
  21        2PX        -0.02969  -0.02462  -0.14236   0.01093  -0.10436
  22        2PY        -0.00614   0.17578  -0.01287  -0.03003   0.10346
  23        2PZ        -0.00295   0.02105  -0.07034   0.02351   0.04321
  24        3S         -0.19080  -0.48543   1.39489   0.20536   1.44556
  25        3PX         0.05111  -0.10216  -0.71059   0.26094  -1.06298
  26        3PY         0.01494   1.00524  -0.10637  -0.88002   0.77019
  27        3PZ        -0.04582   0.09165  -0.21956  -0.04774   0.28425
  28 4   C  1S          0.00180  -0.09479  -0.12016  -0.10129   0.04871
  29        2S         -0.00869  -0.00251   0.04305  -0.00521  -0.00927
  30        2PX         0.04416   0.01693   0.03283  -0.05926   0.03542
  31        2PY        -0.04766  -0.04380   0.05526   0.03355   0.25352
  32        2PZ        -0.02577   0.00945   0.10376  -0.06109  -0.11528
  33        3S         -0.03492   1.81642   2.03129   2.18261  -1.02384
  34        3PX         0.29149   0.16564   0.18178  -0.45184  -0.06657
  35        3PY        -0.16622  -0.17036   0.34551   0.13870   1.89424
  36        3PZ        -0.13385  -0.04311   0.34021  -0.42739  -0.59779
  37 5   C  1S          0.05004  -0.07350   0.00272   0.07287  -0.01684
  38        2S         -0.04168   0.00827   0.00355  -0.01167  -0.01124
  39        2PX         0.02393  -0.00018  -0.03506   0.09952   0.05293
  40        2PY         0.04025   0.06607  -0.12548  -0.08765  -0.02056
  41        2PZ         0.03237   0.07460   0.06413  -0.06892  -0.05956
  42        3S         -0.42487   1.51986   0.01482  -1.53855   0.67960
  43        3PX        -0.12449  -0.01278  -0.31665   1.00369   0.27775
  44        3PY         0.36980   0.40833  -0.87797  -0.33151  -0.31443
  45        3PZ         0.21227   0.22977   0.21653  -0.53090  -0.22224
  46 6   C  1S          0.06474   0.08541   0.00904   0.06428  -0.02789
  47        2S         -0.03407   0.00069  -0.00472   0.00278  -0.01425
  48        2PX         0.06984  -0.09482   0.16728  -0.02978  -0.10181
  49        2PY         0.11414  -0.05273  -0.08123   0.03145   0.10867
  50        2PZ         0.15728   0.12769  -0.01670   0.03911  -0.02212
  51        3S         -0.78781  -1.44445  -0.08211  -1.06752   0.67112
  52        3PX         0.29063  -0.62058   0.89485  -0.47090  -1.39676
  53        3PY         0.62621  -0.39144  -0.51826  -0.11853   1.34094
  54        3PZ         0.69851   0.81442  -0.11987   0.52360  -0.23323
  55 7   C  1S         -0.09795  -0.02665   0.06960  -0.07975  -0.02852
  56        2S          0.04262  -0.01391  -0.01700   0.00272   0.00047
  57        2PX        -0.01625  -0.14703   0.01339   0.00913  -0.12767
  58        2PY        -0.12128   0.04100  -0.05181   0.15308  -0.04436
  59        2PZ        -0.04558   0.04894  -0.09717   0.05738   0.10741
  60        3S          1.39711   0.55714  -1.36559   1.54869   0.73203
  61        3PX        -0.15535  -1.08296  -0.02741  -0.01502  -0.71513
  62        3PY        -0.63006   0.20028  -0.39754   1.25151   0.03935
  63        3PZ        -0.24483   0.31985  -0.36797   0.26817   0.60960
  64 8   H  1S          0.01126   0.00896  -0.02454   0.00975  -0.09620
  65        2S         -0.61271   0.07854  -0.13068  -0.15840   0.28975
  66 9   H  1S          0.00960  -0.06108  -0.02323   0.00986  -0.04106
  67        2S          0.17024   0.31598  -0.14550   0.43779  -0.17338
  68 10  H  1S         -0.02865  -0.02014   0.04016   0.01013   0.04737
  69        2S         -0.04219  -0.14360   0.31920   0.00747   0.23781
  70 11  H  1S          0.02727   0.05546  -0.00370  -0.00753   0.08284
  71        2S          0.55950  -0.06899  -0.02709  -0.58237  -0.45200
  72 12  H  1S         -0.00974   0.01181  -0.06509  -0.02180   0.05942
  73        2S         -1.27763   0.20404  -0.12027   0.61772   0.01212
  74 13  C  1S         -0.02171   0.04537   0.03387   0.05863  -0.01308
  75        2S          0.00800  -0.01237  -0.00001  -0.01851  -0.01118
  76        2PX         0.00664   0.00906   0.00294  -0.09817  -0.02929
  77        2PY        -0.05520   0.11410  -0.07853  -0.03510  -0.06997
  78        2PZ         0.02136  -0.01659   0.01433  -0.06787  -0.01702
  79        3S          0.33973  -0.69473  -0.52276  -1.03201   0.21563
  80        3PX         0.08655  -0.33536  -0.29413  -1.18580   0.08176
  81        3PY        -0.33031   0.49505  -0.41372  -0.20806  -0.91195
  82        3PZ         0.18053  -0.15264  -0.18837  -0.34585   0.25767
  83 14  H  1S          0.04523   0.01669  -0.00505  -0.02796  -0.03349
  84        2S          0.31258  -0.29648   0.45833  -0.06705   0.56786
  85 15  H  1S         -0.05559  -0.01231   0.00627  -0.02567   0.03526
  86        2S         -0.47534   0.64815  -0.25645  -0.38136  -0.70219
  87 16  H  1S         -0.03081  -0.02141   0.00152  -0.03835   0.00655
  88        2S         -0.61052  -0.15875   0.04385  -0.03419   0.09208
  89 17  H  1S          0.03751  -0.06654   0.00237  -0.00352   0.03182
  90        2S          1.12915  -0.24791   0.27643   0.18836  -0.05418
                          46        47        48        49        50
                           V         V         V         V         V
     Eigenvalues --     0.41717   0.44105   0.48347   0.57524   0.64879
   1 1   C  1S         -0.02623   0.01144  -0.10750   0.01610  -0.00944
   2        2S          0.02062   0.00936   0.00720  -0.02570   0.13075
   3        2PX         0.12624   0.07259   0.01547   0.01764   0.24209
   4        2PY         0.00123   0.10878  -0.17394   0.17411  -0.20742
   5        2PZ        -0.04579   0.02490  -0.00158   0.00742   0.02867
   6        3S          0.74066  -0.47878   2.54694   0.08976   0.19604
   7        3PX         2.06665   0.80253   1.32925   1.93734  -0.01254
   8        3PY         0.24153   1.51568  -1.16115   1.75806   0.23935
   9        3PZ         0.21864  -0.10804   0.02139   0.26708   0.02846
  10 2   C  1S          0.03733   0.03535   0.09112  -0.03921   0.00205
  11        2S          0.03724  -0.00534  -0.02389  -0.00754   0.13994
  12        2PX         0.06130   0.14850   0.12613   0.20841  -0.07973
  13        2PY        -0.04069  -0.02231   0.16360  -0.08038  -0.27666
  14        2PZ        -0.02358  -0.00466   0.02974  -0.03022   0.01118
  15        3S         -1.66159  -0.80249  -1.88111   0.80936  -0.00315
  16        3PX         1.42914   0.58872   1.23436   2.77539   0.41413
  17        3PY         0.06913  -0.07156   1.55866  -1.40301   0.17550
  18        3PZ        -0.03534   0.05963   0.21081  -0.27955  -0.00783
  19 3   C  1S          0.03752  -0.01070  -0.10123   0.03212  -0.01508
  20        2S          0.01371   0.02212   0.01300  -0.01348   0.15117
  21        2PX        -0.01723  -0.09869  -0.10164   0.14179  -0.29721
  22        2PY         0.00333   0.02499  -0.16928  -0.18119  -0.15941
  23        2PZ        -0.00659   0.02314  -0.02720  -0.04149   0.07202
  24        3S         -1.27066  -0.24122   2.25740  -0.77289   0.02149
  25        3PX        -0.08076  -0.45593  -1.32763   1.57135   0.35237
  26        3PY         0.41071  -0.32596  -1.48890  -2.66876  -0.22715
  27        3PZ         0.14767   0.04997  -0.17441  -0.69043  -0.10428
  28 4   C  1S         -0.04160  -0.00293   0.03547  -0.01060  -0.00609
  29        2S          0.02939  -0.00933  -0.02269  -0.01274   0.05142
  30        2PX        -0.19195   0.19119  -0.11365  -0.00282   0.29188
  31        2PY         0.14691   0.11597  -0.09334   0.16493   0.05232
  32        2PZ        -0.07659   0.10282  -0.01615  -0.12250  -0.03394
  33        3S          1.63419  -0.13445  -0.28055   0.66879  -0.21733
  34        3PX        -2.00063   2.30777  -1.22009   0.56903  -0.21145
  35        3PY         1.44028   0.92552  -0.88649   2.18821   0.09140
  36        3PZ        -0.69201   0.86415  -0.24815  -0.24316  -0.07761
  37 5   C  1S          0.00452   0.07380   0.08827  -0.01851   0.00148
  38        2S          0.02118   0.00488  -0.01136   0.01381   0.14067
  39        2PX         0.02724   0.11199   0.10779  -0.15585  -0.27432
  40        2PY         0.18060   0.03400  -0.08544  -0.15280   0.08323
  41        2PZ        -0.01208  -0.02316  -0.04756  -0.00937   0.07059
  42        3S         -0.44266  -2.08798  -1.98618   0.33736  -0.01336
  43        3PX         0.49697   1.58208   0.64828  -1.77837   0.04959
  44        3PY         1.28951   0.68399  -1.76700  -2.25459  -0.39837
  45        3PZ         0.04921  -0.45575  -0.54251  -0.01693  -0.12120
  46 6   C  1S         -0.07075   0.01094   0.02999  -0.01284  -0.00464
  47        2S         -0.02587  -0.00210  -0.00265   0.00124   0.07250
  48        2PX         0.04251   0.01010   0.04862  -0.01923   0.25573
  49        2PY         0.01309  -0.13136  -0.06078  -0.00399   0.25687
  50        2PZ        -0.08897  -0.04603   0.01041  -0.02912  -0.01254
  51        3S          2.00941  -0.02992  -0.59953   0.12089  -0.10572
  52        3PX         0.59318  -0.64402  -0.31358  -1.14497  -0.32758
  53        3PY         0.74882  -1.10255   0.19139   0.99488   0.00772
  54        3PZ        -0.89082  -0.19942   0.38528  -0.06494  -0.02050
  55 7   C  1S         -0.00277  -0.06064  -0.04400   0.03774  -0.00131
  56        2S          0.02259  -0.00982   0.00392   0.02964   0.10999
  57        2PX         0.11191   0.08161  -0.14109  -0.07842   0.05887
  58        2PY        -0.00746   0.10438   0.07693  -0.03012   0.25341
  59        2PZ        -0.03979  -0.03424   0.06970   0.11715   0.05589
  60        3S          0.22692   1.83789   0.62104  -1.44185  -0.08733
[...]
  82        3PZ        -0.00000  -0.00000  -0.00000  -0.00000  -0.00000
  83 14  H  1S         -0.00000  -0.00000   0.00000  -0.00000   0.00000
  84        2S         -0.00000  -0.00000  -0.00000  -0.00000  -0.00000
  85 15  H  1S          0.00000   0.00000   0.00000  -0.00000   0.00000
  86        2S          0.00000   0.00000  -0.00000  -0.00000  -0.00000
  87 16  H  1S         -0.00000   0.00000   0.00000   0.00000  -0.00000
  88        2S          0.00000   0.00001   0.00000   0.00001  -0.00000
  89 17  H  1S          0.00000   0.00000   0.00000   0.00000  -0.00000
  90        2S          0.00000   0.00000   0.00000   0.00000  -0.00000
                          71        72        73        74        75
  71        2S          0.06408
  72 12  H  1S         -0.00035   0.17600
  73        2S         -0.00081   0.06249   0.05904
  74 13  C  1S          0.00000   0.00000   0.00000   2.03755
  75        2S          0.00000  -0.00000  -0.00000   0.01752   0.12695
  76        2PX         0.00000  -0.00000  -0.00000   0.00000   0.00000
  77        2PY         0.00000   0.00000   0.00000   0.00000   0.00000
  78        2PZ         0.00000  -0.00000  -0.00000   0.00000   0.00000
  79        3S          0.00000  -0.00000  -0.00000  -0.06705   0.18147
  80        3PX         0.00000  -0.00000  -0.00001   0.00000   0.00000
  81        3PY        -0.00000  -0.00000  -0.00002   0.00000   0.00000
  82        3PZ         0.00000  -0.00000  -0.00000   0.00000   0.00000
  83 14  H  1S         -0.00000   0.00000   0.00000  -0.00108   0.01112
  84        2S         -0.00000   0.00000   0.00000   0.00067   0.00535
  85 15  H  1S         -0.00000  -0.00000   0.00000  -0.00109   0.01136
  86        2S         -0.00000  -0.00000   0.00000   0.00062   0.00582
  87 16  H  1S         -0.00000   0.00000   0.00004  -0.00000   0.00000
  88        2S         -0.00002   0.00010   0.00084  -0.00000   0.00002
  89 17  H  1S         -0.00000  -0.00001  -0.00062   0.00000  -0.00000
  90        2S         -0.00003  -0.00048  -0.00194   0.00001  -0.00012
                          76        77        78        79        80
  76        2PX         0.30953
  77        2PY         0.00000   0.31004
  78        2PZ         0.00000   0.00000   0.18255
  79        3S          0.00000   0.00000   0.00000   0.70437
  80        3PX         0.08381   0.00000   0.00000   0.00000   0.09585
  81        3PY         0.00000   0.15566   0.00000   0.00000   0.00000
  82        3PZ         0.00000   0.00000   0.09143   0.00000   0.00000
  83 14  H  1S          0.01402   0.04070   0.00458   0.06812   0.01224
  84        2S          0.00888   0.02230   0.00307   0.04816   0.01000
  85 15  H  1S          0.01519   0.04352   0.00054   0.06755   0.01509
  86        2S          0.00983   0.02343   0.00042   0.04839   0.01287
  87 16  H  1S          0.00000   0.00000  -0.00000   0.00001   0.00010
  88        2S          0.00012   0.00003  -0.00018   0.00042   0.00169
  89 17  H  1S         -0.00000  -0.00000  -0.00000  -0.00043  -0.00013
  90        2S         -0.00020  -0.00016  -0.00004  -0.00136  -0.00045
                          81        82        83        84        85
  81        3PY         0.29371
  82        3PZ         0.00000   0.17734
  83 14  H  1S          0.07052   0.00541   0.17800
  84        2S          0.05600   0.00514   0.06915   0.07227
  85 15  H  1S          0.07347   0.00014  -0.00013  -0.00307   0.17793
  86        2S          0.05694   0.00021  -0.00281  -0.00645   0.06799
  87 16  H  1S          0.00004  -0.00023  -0.00000  -0.00000   0.00000
  88        2S          0.00058  -0.00314  -0.00000  -0.00004   0.00001
  89 17  H  1S          0.00010   0.00006   0.00000   0.00001  -0.00000
  90        2S          0.00103   0.00019   0.00000   0.00010   0.00006
                          86        87        88        89        90
  86        2S          0.06930
  87 16  H  1S         -0.00000   0.16324
  88        2S          0.00004   0.07813   0.11076
  89 17  H  1S          0.00009  -0.00011  -0.00313   0.16920
  90        2S          0.00090  -0.00292  -0.00701   0.07757   0.09644
     Gross orbital populations:
                           1
   1 1   C  1S          1.98862
   2        2S          0.41889
   3        2PX         0.64796
   4        2PY         0.61193
   5        2PZ         0.27086
   6        3S          0.91972
   7        3PX         0.35276
   8        3PY         0.44705
   9        3PZ         0.39006
  10 2   C  1S          1.98778
  11        2S          0.39315
  12        2PX         0.60498
  13        2PY         0.57843
  14        2PZ         0.45286
  15        3S          0.89050
  16        3PX         0.22669
  17        3PY         0.51850
  18        3PZ         0.66056
  19 3   C  1S          1.98856
  20        2S          0.42067
  21        2PX         0.61857
  22        2PY         0.63759
  23        2PZ         0.27317
  24        3S          0.93659
  25        3PX         0.52079
  26        3PY         0.31499
  27        3PZ         0.37057
  28 4   C  1S          1.98831
  29        2S          0.39056
  30        2PX         0.59524
  31        2PY         0.56403
  32        2PZ         0.46900
  33        3S          0.87679
  34        3PX         0.34208
  35        3PY         0.30826
  36        3PZ         0.60362
  37 5   C  1S          1.98777
  38        2S          0.39303
  39        2PX         0.57993
  40        2PY         0.58706
  41        2PZ         0.46845
  42        3S          0.89429
  43        3PX         0.47138
  44        3PY         0.28363
  45        3PZ         0.63781
  46 6   C  1S          1.98966
  47        2S          0.34362
  48        2PX         0.54698
  49        2PY         0.54370
  50        2PZ         0.54393
  51        3S          1.20256
  52        3PX         0.39491
  53        3PY         0.41326
  54        3PZ         0.55108
  55 7   C  1S          1.98845
  56        2S          0.41167
  57        2PX         0.57343
  58        2PY         0.60163
  59        2PZ         0.35609
  60        3S          0.92908
  61        3PX         0.26158
  62        3PY         0.53592
  63        3PZ         0.41057
  64 8   H  1S          0.45191
  65        2S          0.22314
  66 9   H  1S          0.44840
  67        2S          0.24493
  68 10  H  1S          0.45166
  69        2S          0.21273
  70 11  H  1S          0.44789
  71        2S          0.24517
  72 12  H  1S          0.45381
  73        2S          0.22591
  74 13  C  1S          1.98760
  75        2S          0.40836
  76        2PX         0.58731
  77        2PY         0.58774
  78        2PZ         0.34910
  79        3S          0.99335
  80        3PX         0.30037
  81        3PY         0.63091
  82        3PZ         0.42693
  83 14  H  1S          0.45743
  84        2S          0.25654
  85 15  H  1S          0.45702
  86        2S          0.25282
  87 16  H  1S          0.43088
  88        2S          0.26633
  89 17  H  1S          0.44371
  90        2S          0.27589
          Condensed to atoms (all electrons):
               1          2          3          4          5          6
     1  C    5.135262   0.445119  -0.085037   0.328902   0.001356  -0.069283
     2  C    0.445119   5.290962   0.413140  -0.087303  -0.085759   0.001657
     3  C   -0.085037   0.413140   5.149481   0.003212   0.369738   0.002412
     4  C    0.328902  -0.087303   0.003212   5.528483   0.002947   0.231561
     5  C    0.001356  -0.085759   0.369738   0.002947   5.302044  -0.087570
     6  C   -0.069283   0.001657   0.002412   0.231561  -0.087570   5.523735
     7  C    0.000703   0.002233  -0.087138  -0.102831   0.472751   0.235982
     8  H    0.381190  -0.029408   0.001668  -0.036244  -0.000035   0.001432
     9  H   -0.031608   0.389130  -0.031585   0.001756   0.001759  -0.000006
    10  H    0.001696  -0.031544   0.377065  -0.000038  -0.030725  -0.000008
    11  H   -0.000080   0.001659  -0.033191   0.000021   0.388469   0.001506
    12  H   -0.000049  -0.000032   0.001838   0.002482  -0.032866  -0.031894
    13  C   -0.068136   0.001606  -0.000117   0.462513   0.000202  -0.059515
    14  H    0.002721   0.000125  -0.000001  -0.053135  -0.000001   0.001901
    15  H    0.002020  -0.000041   0.000003  -0.047546  -0.000001  -0.000793
    16  H    0.000620   0.001966   0.000075  -0.051621  -0.001925   0.384248
    17  H    0.002455  -0.000053  -0.000064  -0.045276   0.002950   0.394333
               7          8          9         10         11         12
     1  C    0.000703   0.381190  -0.031608   0.001696  -0.000080  -0.000049
     2  C    0.002233  -0.029408   0.389130  -0.031544   0.001659  -0.000032
     3  C   -0.087138   0.001668  -0.031585   0.377065  -0.033191   0.001838
     4  C   -0.102831  -0.036244   0.001756  -0.000038   0.000021   0.002482
     5  C    0.472751  -0.000035   0.001759  -0.030725   0.388469  -0.032866
     6  C    0.235982   0.001432  -0.000006  -0.000008   0.001506  -0.031894
     7  C    5.278446  -0.000038  -0.000065   0.001588  -0.027910   0.383855
     8  H   -0.000038   0.356331  -0.001562  -0.000027   0.000000   0.000000
     9  H   -0.000065  -0.001562   0.367023  -0.001446  -0.000029   0.000000
    10  H    0.001588  -0.000027  -0.001446   0.349063  -0.001212  -0.000026
    11  H   -0.027910   0.000000  -0.000029  -0.001212   0.365377  -0.001507
    12  H    0.383855   0.000000   0.000000  -0.000026  -0.001507   0.360014
    13  C    0.003529   0.000643  -0.000046   0.000000   0.000001  -0.000036
    14  H   -0.000056   0.001050  -0.000001  -0.000000  -0.000000   0.000000
    15  H    0.000018   0.000030   0.000000  -0.000000  -0.000000   0.000001
    16  H   -0.053724   0.000041   0.000005   0.000006  -0.000017   0.000984
    17  H   -0.038917  -0.000027   0.000000   0.000000  -0.000027  -0.003046
              13         14         15         16         17
     1  C   -0.068136   0.002721   0.002020   0.000620   0.002455
     2  C    0.001606   0.000125  -0.000041   0.001966  -0.000053
     3  C   -0.000117  -0.000001   0.000003   0.000075  -0.000064
     4  C    0.462513  -0.053135  -0.047546  -0.051621  -0.045276
     5  C    0.000202  -0.000001  -0.000001  -0.001925   0.002950
     6  C   -0.059515   0.001901  -0.000793   0.384248   0.394333
     7  C    0.003529  -0.000056   0.000018  -0.053724  -0.038917
     8  H    0.000643   0.001050   0.000030   0.000041  -0.000027
     9  H   -0.000046  -0.000001   0.000000   0.000005   0.000000
    10  H    0.000000  -0.000000  -0.000000   0.000006   0.000000
    11  H    0.000001  -0.000000  -0.000000  -0.000017  -0.000027
    12  H   -0.000036   0.000000   0.000001   0.000984  -0.003046
    13  C    5.163569   0.385187   0.384311  -0.000541  -0.001491
    14  H    0.385187   0.388580  -0.012460  -0.000044   0.000105
    15  H    0.384311  -0.012460   0.383210   0.000048   0.001047
    16  H   -0.000541  -0.000044   0.000048   0.430258  -0.013170
    17  H   -0.001491   0.000105   0.001047  -0.013170   0.420785
 Mulliken charges:
               1
     1  C   -0.047850
     2  C   -0.313457
     3  C   -0.081499
     4  C   -0.137882
     5  C   -0.303333
     6  C   -0.529700
     7  C   -0.068425
     8  H    0.324957
     9  H    0.306674
    10  H    0.335605
    11  H    0.306940
    12  H    0.320282
    13  C   -0.271678
    14  H    0.286027
    15  H    0.290153
    16  H    0.302791
    17  H    0.280394
 Sum of Mulliken charges =   1.00000
 Mulliken charges with hydrogens summed into heavy atoms:
               1
     1  C    0.277107
     2  C   -0.006783
     3  C    0.254107
     4  C   -0.137882
     5  C    0.003607
     6  C    0.053485
     7  C    0.251856
    13  C    0.304502
 Electronic spatial extent (au):  <R**2>=            881.0851
 Charge=              1.0000 electrons
 Dipole moment (field-independent basis, Debye):
    X=             -0.5222    Y=              0.2287    Z=             -0.2706  Tot=              0.6311
 Quadrupole moment (field-independent basis, Debye-Ang):
   XX=            -24.5001   YY=            -31.5391   ZZ=            -49.0154
   XY=              0.4571   XZ=              0.7486   YZ=              0.5169
 Traceless Quadrupole moment (field-independent basis, Debye-Ang):
   XX=             10.5181   YY=              3.4791   ZZ=            -13.9972
   XY=              0.4571   XZ=              0.7486   YZ=              0.5169
 Octapole moment (field-independent basis, Debye-Ang**2):
  XXX=             -6.2119  YYY=             -0.4262  ZZZ=              3.0543  XYY=             -0.4239
  XXY=              5.9095  XXZ=            -13.4102  XZZ=             -1.8140  YZZ=             -2.5758
  YYZ=             -0.5962  XYZ=              3.8817
 Hexadecapole moment (field-independent basis, Debye-Ang**3):
 XXXX=           -495.6647 YYYY=           -334.3684 ZZZZ=            -88.7117 XXXY=             14.7191
 XXXZ=             14.1915 YYYX=             -4.1346 YYYZ=             10.9621 ZZZX=              0.3486
 ZZZY=             -3.4671 XXYY=           -145.4945 XXZZ=           -130.3983 YYZZ=            -89.1741
 XXYZ=              3.4511 YYXZ=             -1.1100 ZZXY=             -1.7363
 N-N= 3.338452667990D+02 E-N=-1.367745419044D+03  KE= 3.050957532056D+02
 Orbital energies and kinetic energies (alpha):
                                 1                 2
   1         O               -11.432642         15.878768
   2         O               -11.430725         15.879143
   3         O               -11.410712         15.877420
   4         O               -11.393509         15.874507
   5         O               -11.382515         15.874609
   6         O               -11.368679         15.873309
   7         O               -11.365631         15.881602
   8         O               -11.361478         15.873189
   9         O                -1.346352          1.455975
  10         O                -1.271313          1.561255
  11         O                -1.248386          1.553897
  12         O                -1.147073          1.535645
  13         O                -1.096138          1.500670
  14         O                -1.022907          1.460489
  15         O                -0.921894          1.382675
  16         O                -0.907303          1.178691
  17         O                -0.877493          1.104089
  18         O                -0.819576          1.105806
  19         O                -0.808353          1.168020
  20         O                -0.785308          1.143351
  21         O                -0.762575          1.213304
  22         O                -0.730344          1.166447
  23         O                -0.703128          1.293315
  24         O                -0.692483          1.261573
  25         O                -0.671777          1.276239
  26         O                -0.639347          1.020282
  27         O                -0.574402          1.079906
  28         O                -0.505217          1.073701
  29         V                -0.183507          1.130741
  30         V                -0.047992          1.211033
  31         V                 0.026136          1.223723
  32         V                 0.063870          0.902004
  33         V                 0.105451          1.018645
  34         V                 0.113186          1.206160
  35         V                 0.124145          1.100565
  36         V                 0.152706          1.127871
  37         V                 0.170601          1.079543
  38         V                 0.181585          1.162809
  39         V                 0.210029          1.259595
  40         V                 0.213851          1.306020
  41         V                 0.222397          1.265402
  42         V                 0.264495          1.688127
  43         V                 0.277030          1.804405
  44         V                 0.347551          1.941004
  45         V                 0.362092          1.599293
  46         V                 0.417166          1.515296
  47         V                 0.441049          1.632738
  48         V                 0.483467          2.249193
  49         V                 0.575240          1.809957
  50         V                 0.648793          2.072066
  51         V                 0.722737          2.307372
  52         V                 0.746453          2.531975
  53         V                 0.759806          2.552574
  54         V                 0.796804          2.696243
  55         V                 0.801780          2.610421
  56         V                 0.831306          2.790437
  57         V                 0.844324          2.665928
  58         V                 0.876733          2.769635
  59         V                 0.884189          2.736949
  60         V                 0.891244          2.711069
  61         V                 0.907701          2.729651
  62         V                 0.920176          2.541797
  63         V                 0.934877          2.683341
  64         V                 0.958118          2.743047
  65         V                 0.971733          2.819146
  66         V                 0.997737          2.852068
  67         V                 1.070218          3.119400
  68         V                 1.086664          3.181138
  69         V                 1.099079          3.093221
  70         V                 1.121183          2.984532
  71         V                 1.131804          2.999676
  72         V                 1.145784          3.063773
  73         V                 1.204101          3.084997
  74         V                 1.224608          3.159088
  75         V                 1.241712          3.255425
  76         V                 1.274164          3.027050
  77         V                 1.324244          2.717988
  78         V                 1.377050          2.981727
  79         V                 1.399855          2.748159
  80         V                 1.467401          2.840342
  81         V                 1.505784          2.969918
  82         V                 1.534216          2.945284
  83         V                 1.562220          2.915592
  84         V                 1.588357          2.869112
  85         V                 1.632775          3.088449
  86         V                 1.751144          3.285131
  87         V                 1.910445          3.319686
  88         V                 1.971407          3.443086
  89         V                 2.156582          3.397778
  90         V                 2.336201          3.543323
 Total kinetic energy from orbitals= 3.050957532056D+02
 1\1\GINC-IISERK51\SP\RHF\3-21G*\C8H9(1+)\GAUSSIAN\12-Jun-2025\0\\# hf/
 3-21g* pop=full geom=connectivity\\Optimisation\\1,1\C,0,-0.523885,1.3
 34084,0.109531\C,0,0.836069,1.544336,0.152388\C,0,1.852084,0.618542,-0
 .068868\C,0,-1.223952,0.08346,0.048168\C,0,1.736327,-0.762529,-0.33331
 9\C,0,-0.590189,-1.155665,0.581832\C,0,0.660981,-1.55651,-0.089219\H,0
 ,-1.167675,2.243675,0.092901\H,0,1.166271,2.596067,0.303801\H,0,2.8891
 86,1.027163,-0.099258\H,0,2.646275,-1.242249,-0.755516\H,0,0.733045,-2
 .634543,-0.346096\C,0,-2.494095,0.052351,-0.424572\H,0,-3.032933,0.962
 44,-0.73515\H,0,-3.057672,-0.889213,-0.529105\H,0,-0.366078,-1.005932,
 1.682414\H,0,-1.330456,-2.005823,0.530363\\Version=EM64L-G16RevB.01\St
 ate=1-A\HF=-306.1568271\RMSD=9.530e-09\Dipole=-0.2054581,0.0899831,-0.
 1064548\Quadrupole=7.8199744,2.5866127,-10.4065871,0.3398535,0.556582,
 0.3842939\PG=C01 [X(C8H9)]\\@


 THE REASON MAN'S BEST FRIEND IS A DOG IS BECAUSE
 HE WAGS HIS TAIL INSTEAD OF HIS TONGUE.
 Job cpu time:       0 days  0 hours  0 minutes  1.4 seconds.
 Elapsed time:       0 days  0 hours  0 minutes  1.4 seconds.
 File lengths (MBytes):  RWF=      6 Int=      0 D2E=      0 Chk=      2 Scr=      1
 Normal termination of Gaussian 16 at Thu Jun 12 22:43:25 2025.
