 Entering Gaussian System, Link 0=g16
 Input=/home/gaussian/Documents/program files/Aromaticity/AM1 HF3-21G*/cyclooctatetraene/sp/meth_cyclooctatetraene_isomer_sp.com
 Output=/home/gaussian/Documents/program files/Aromaticity/AM1 HF3-21G*/cyclooctatetraene/sp/meth_cyclooctatetraene_isomer_sp.log
 Initial command:
 /usr/local/g16/l1.exe "/home/gaussian/tmp/Gau-145622.inp" -scrdir="/home/gaussian/tmp/"
 Entering Link 1 = /usr/local/g16/l1.exe PID=    145625.
  
 Copyright (c) 1988-2017, Gaussian, Inc.  All Rights Reserved.
  
 This is part of the Gaussian(R) 16 program.  It is based on
 the Gaussian(R) 09 system (copyright 2009, Gaussian, Inc.),
 the Gaussian(R) 03 system (copyright 2003, Gaussian, Inc.),
 the Gaussian(R) 98 system (copyright 1998, Gaussian, Inc.),
 the Gaussian(R) 94 system (copyright 1995, Gaussian, Inc.),
 the Gaussian 92(TM) system (copyright 1992, Gaussian, Inc.),
 the Gaussian 90(TM) system (copyright 1990, Gaussian, Inc.),
 the Gaussian 88(TM) system (copyright 1988, Gaussian, Inc.),
 the Gaussian 86(TM) system (copyright 1986, Carnegie Mellon
 University), and the Gaussian 82(TM) system (copyright 1983,
 Carnegie Mellon University). Gaussian is a federally registered
 trademark of Gaussian, Inc.
  
 This software contains proprietary and confidential information,
 including trade secrets, belonging to Gaussian, Inc.
  
 This software is provided under written license and may be
 used, copied, transmitted, or stored only in accord with that
 written license.
  
 The following legend is applicable only to US Government
 contracts under FAR:
  
                    RESTRICTED RIGHTS LEGEND
  
 Use, reproduction and disclosure by the US Government is
 subject to restrictions as set forth in subparagraphs (a)
 and (c) of the Commercial Computer Software - Restricted
 Rights clause in FAR 52.227-19.
  
 Gaussian, Inc.
 340 Quinnipiac St., Bldg. 40, Wallingford CT 06492
  
  
 ---------------------------------------------------------------
 Warning -- This program may not be used in any manner that
 competes with the business of Gaussian, Inc. or will provide
 assistance to any competitor of Gaussian, Inc.  The licensee
 of this program is prohibited from giving any competitor of
 Gaussian, Inc. access to this program.  By using this program,
 the user acknowledges that Gaussian, Inc. is engaged in the
 business of creating and licensing software in the field of
 computational chemistry and represents and warrants to the
 licensee that it is not a competitor of Gaussian, Inc. and that
 it will not use this program in any manner prohibited above.
 ---------------------------------------------------------------
  

 Cite this work as:
 Gaussian 16, Revision B.01,
 M. J. Frisch, G. W. Trucks, H. B. Schlegel, G. E. Scuseria, 
 M. A. Robb, J. R. Cheeseman, G. Scalmani, V. Barone, 
 G. A. Petersson, H. Nakatsuji, X. Li, M. Caricato, A. V. Marenich, 
 J. Bloino, B. G. Janesko, R. Gomperts, B. Mennucci, H. P. Hratchian, 
 J. V. Ortiz, A. F. Izmaylov, J. L. Sonnenberg, D. Williams-Young, 
 F. Ding, F. Lipparini, F. Egidi, J. Goings, B. Peng, A. Petrone, 
 T. Henderson, D. Ranasinghe, V. G. Zakrzewski, J. Gao, N. Rega, 
 G. Zheng, W. Liang, M. Hada, M. Ehara, K. Toyota, R. Fukuda, 
 J. Hasegawa, M. Ishida, T. Nakajima, Y. Honda, O. Kitao, H. Nakai, 
 T. Vreven, K. Throssell, J. A. Montgomery, Jr., J. E. Peralta, 
 F. Ogliaro, M. J. Bearpark, J. J. Heyd, E. N. Brothers, K. N. Kudin, 
 V. N. Staroverov, T. A. Keith, R. Kobayashi, J. Normand, 
 K. Raghavachari, A. P. Rendell, J. C. Burant, S. S. Iyengar, 
 J. Tomasi, M. Cossi, J. M. Millam, M. Klene, C. Adamo, R. Cammi, 
 J. W. Ochterski, R. L. Martin, K. Morokuma, O. Farkas, 
 J. B. Foresman, and D. J. Fox, Gaussian, Inc., Wallingford CT, 2016.
 
 ******************************************
 Gaussian 16:  EM64L-G16RevB.01 20-Dec-2017
                12-Jun-2025 
 ******************************************
 %chk=meth_cyclooctatetraene_isomer_sp.chk
 --------------------------------------
 # hf/3-21g* pop=full geom=connectivity
 --------------------------------------
 1/38=1,57=2,172=1/1;
 2/12=2,17=6,18=5,40=1/2;
 3/5=5,7=1,11=9,25=1,30=1/1,2,3;
 4//1;
 5/5=2,38=5/2;
 6/7=3,28=1/1;
 99/5=1,9=1/99;
 -------------------
 Title Card Required
 -------------------
 Symbolic Z-matrix:
 Charge =  0 Multiplicity = 1
 C                     1.64318   1.09787   0.35877 
 C                     2.12774  -0.13804   0.17083 
 C                     1.49591  -1.22599  -0.54596 
 C                     0.46072   1.71814  -0.19193 
 C                     0.24376  -1.64056  -0.3176 
 C                    -0.81171   1.3121   -0.30663 
 C                    -0.64393  -1.01873   0.69852 
 C                    -1.46171   0.07869   0.10197 
 H                     2.25722   1.8078    0.9499 
 H                     3.11995  -0.39187   0.58997 
 H                     2.13415  -1.73601  -1.28791 
 H                     0.68331   2.74199  -0.56441 
 H                    -0.18628  -2.48391  -0.88005 
 H                    -1.51735   2.03476  -0.76868 
 C                    -2.78842  -0.06778  -0.04927 
 H                    -3.42282   0.71456  -0.48464 
 H                    -3.31527  -0.98088   0.25458 
 H                    -0.03061  -0.59437   1.54211 
 H                    -1.31551  -1.80623   1.13692 
 
                          Input orientation:                          
 ---------------------------------------------------------------------
 Center     Atomic      Atomic             Coordinates (Angstroms)
 Number     Number       Type             X           Y           Z
 ---------------------------------------------------------------------
      1          6           0        1.643182    1.097872    0.358766
      2          6           0        2.127737   -0.138042    0.170825
      3          6           0        1.495908   -1.225988   -0.545959
      4          6           0        0.460722    1.718137   -0.191933
      5          6           0        0.243756   -1.640562   -0.317597
      6          6           0       -0.811712    1.312102   -0.306629
      7          6           0       -0.643933   -1.018733    0.698524
      8          6           0       -1.461707    0.078689    0.101970
      9          1           0        2.257222    1.807802    0.949901
     10          1           0        3.119950   -0.391865    0.589965
     11          1           0        2.134148   -1.736012   -1.287907
     12          1           0        0.683312    2.741985   -0.564408
     13          1           0       -0.186282   -2.483908   -0.880045
     14          1           0       -1.517354    2.034757   -0.768678
     15          6           0       -2.788419   -0.067782   -0.049266
     16          1           0       -3.422820    0.714559   -0.484643
     17          1           0       -3.315268   -0.980876    0.254581
     18          1           0       -0.030607   -0.594368    1.542110
     19          1           0       -1.315511   -1.806234    1.136922
 ---------------------------------------------------------------------
                    Distance matrix (angstroms):
                    1          2          3          4          5
     1  C    0.000000
     2  C    1.340746   0.000000
     3  C    2.498108   1.447969   0.000000
     4  C    1.444372   2.521098   3.140831   0.000000
     5  C    3.148790   2.458761   1.338621   3.368045   0.000000
     6  C    2.552479   3.312286   3.438647   1.340563   3.135659
     7  C    3.134701   2.955713   2.484072   3.082796   1.485653
     8  C    3.277959   3.596640   3.296890   2.543600   2.457736
     9  H    1.109273   2.100008   3.467143   2.130549   4.189488
    10  H    2.110359   1.106612   2.150255   3.483528   3.264262
    11  H    3.314133   2.163665   1.103613   3.991573   2.127015
    12  H    2.115823   3.304767   4.050366   1.112002   4.411445
    13  H    4.208413   3.458627   2.126908   4.306889   1.101142
    14  H    3.483945   4.346310   4.445426   2.084627   4.100360
    15  C    4.600470   4.921582   4.465826   3.710361   3.426328
    16  H    5.150014   5.653782   5.288040   4.021784   4.360995
    17  H    5.377571   5.508510   4.883478   4.662847   3.664591
    18  H    2.658110   2.597519   2.662560   2.931892   2.151350
    19  H    4.218201   3.946158   3.327589   4.164379   2.138782
                    6          7          8          9         10
     6  C    0.000000
     7  C    2.543870   0.000000
     8  C    1.452844   1.492972   0.000000
     9  H    3.353050   4.058225   4.187989   0.000000
    10  H    4.377825   3.817272   4.631538   2.390060   0.000000
    11  H    4.351091   3.489718   4.260877   4.193036   2.510964
    12  H    2.084733   4.183250   3.484008   2.375505   4.134102
    13  H    3.889686   2.201832   3.026213   5.266706   4.179563
    14  H    1.110698   3.498478   2.141805   4.153606   5.407309
    15  C    2.424394   2.462177   1.343313   5.474910   5.951678
    16  H    2.684517   3.482298   2.143457   5.959528   6.722112
    17  H    3.441002   2.708237   2.140480   6.269995   6.470815
    18  H    2.768138   1.126007   2.138938   3.369762   3.297514
    19  H    3.472992   1.123996   2.155327   5.085337   4.687528
                   11         12         13         14         15
    11  H    0.000000
    12  H    4.762440   0.000000
    13  H    2.471861   5.307144   0.000000
    14  H    5.274634   2.320523   4.711952   0.000000
    15  C    5.343116   4.495896   3.646776   2.560045   0.000000
    16  H    6.126208   4.580081   4.567462   2.335466   1.097304
    17  H    5.713636   5.524408   3.651991   3.656993   1.097102
    18  H    3.741458   4.009782   3.075944   3.802954   3.227274
    19  H    4.217212   5.251296   2.408850   4.292466   2.568796
                   16         17         18         19
    16  H    0.000000
    17  H    1.852706   0.000000
    18  H    4.162707   3.549101   0.000000
    19  H    3.663963   2.336401   1.812119   0.000000
 Stoichiometry    C9H10
 Framework group  C1[X(C9H10)]
 Deg. of freedom    51
 Full point group                 C1      NOp   1
 Largest Abelian subgroup         C1      NOp   1
 Largest concise Abelian subgroup C1      NOp   1
                         Standard orientation:                         
 ---------------------------------------------------------------------
 Center     Atomic      Atomic             Coordinates (Angstroms)
 Number     Number       Type             X           Y           Z
 ---------------------------------------------------------------------
      1          6           0        1.643182    1.097872    0.358766
      2          6           0        2.127737   -0.138042    0.170825
      3          6           0        1.495908   -1.225988   -0.545959
      4          6           0        0.460722    1.718137   -0.191933
      5          6           0        0.243756   -1.640562   -0.317597
      6          6           0       -0.811712    1.312102   -0.306629
      7          6           0       -0.643933   -1.018733    0.698524
      8          6           0       -1.461707    0.078689    0.101970
      9          1           0        2.257222    1.807802    0.949901
     10          1           0        3.119950   -0.391865    0.589965
     11          1           0        2.134148   -1.736012   -1.287907
     12          1           0        0.683312    2.741985   -0.564408
     13          1           0       -0.186282   -2.483908   -0.880045
     14          1           0       -1.517354    2.034757   -0.768678
     15          6           0       -2.788419   -0.067782   -0.049266
     16          1           0       -3.422820    0.714559   -0.484643
     17          1           0       -3.315268   -0.980876    0.254581
     18          1           0       -0.030607   -0.594368    1.542110
     19          1           0       -1.315511   -1.806234    1.136922
 ---------------------------------------------------------------------
 Rotational constants (GHZ):           2.7151368           1.5865466           1.1012408
 Standard basis: 3-21G* (6D, 7F)
 There are   101 symmetry adapted cartesian basis functions of A   symmetry.
 There are   101 symmetry adapted basis functions of A   symmetry.
   101 basis functions,   165 primitive gaussians,   101 cartesian basis functions
    32 alpha electrons       32 beta electrons
       nuclear repulsion energy       406.3801156511 Hartrees.
 NAtoms=   19 NActive=   19 NUniq=   19 SFac= 1.00D+00 NAtFMM=   60 NAOKFM=F Big=F
 Integral buffers will be    131072 words long.
 Raffenetti 1 integral format.
 Two-electron integral symmetry is turned on.
 One-electron integrals computed using PRISM.
 NBasis=   101 RedAO= T EigKep=  3.93D-03  NBF=   101
 NBsUse=   101 1.00D-06 EigRej= -1.00D+00 NBFU=   101
 ExpMin= 1.83D-01 ExpMax= 1.72D+02 ExpMxC= 1.72D+02 IAcc=3 IRadAn=         5 AccDes= 0.00D+00
 Harris functional with IExCor=  205 and IRadAn=       5 diagonalized for initial guess.
 HarFok:  IExCor=  205 AccDes= 0.00D+00 IRadAn=         5 IDoV= 1 UseB2=F ITyADJ=14
 ICtDFT=  3500011 ScaDFX=  1.000000  1.000000  1.000000  1.000000
 FoFCou: FMM=F IPFlag=           0 FMFlag=      100000 FMFlg1=           0
         NFxFlg=           0 DoJE=T BraDBF=F KetDBF=T FulRan=T
         wScrn=  0.000000 ICntrl=       500 IOpCl=  0 I1Cent=   200000004 NGrid=           0
         NMat0=    1 NMatS0=      1 NMatT0=    0 NMatD0=    1 NMtDS0=    0 NMtDT0=    0
 Petite list used in FoFCou.
 Keep R1 ints in memory in canonical form, NReq=14123881.
 Requested convergence on RMS density matrix=1.00D-08 within 128 cycles.
 Requested convergence on MAX density matrix=1.00D-06.
 Requested convergence on             energy=1.00D-06.
 No special actions if energy rises.
 SCF Done:  E(RHF) =  -344.618068501     A.U. after   14 cycles
            NFock= 14  Conv=0.93D-08     -V/T= 2.0029

 **********************************************************************

            Population analysis using the SCF Density.

 **********************************************************************

 Orbital symmetries:
       Occupied  (A) (A) (A) (A) (A) (A) (A) (A) (A) (A) (A) (A)
                 (A) (A) (A) (A) (A) (A) (A) (A) (A) (A) (A) (A)
                 (A) (A) (A) (A) (A) (A) (A) (A)
       Virtual   (A) (A) (A) (A) (A) (A) (A) (A) (A) (A) (A) (A)
                 (A) (A) (A) (A) (A) (A) (A) (A) (A) (A) (A) (A)
                 (A) (A) (A) (A) (A) (A) (A) (A) (A) (A) (A) (A)
                 (A) (A) (A) (A) (A) (A) (A) (A) (A) (A) (A) (A)
                 (A) (A) (A) (A) (A) (A) (A) (A) (A) (A) (A) (A)
                 (A) (A) (A) (A) (A) (A) (A) (A) (A)
 The electronic state is 1-A.
 Alpha  occ. eigenvalues --  -11.18905 -11.18441 -11.18381 -11.18311 -11.18267
 Alpha  occ. eigenvalues --  -11.18077 -11.17461 -11.17366 -11.16592  -1.13959
 Alpha  occ. eigenvalues --   -1.08008  -1.06068  -0.97492  -0.93322  -0.85706
 Alpha  occ. eigenvalues --   -0.77729  -0.74586  -0.68536  -0.66001  -0.63715
 Alpha  occ. eigenvalues --   -0.62035  -0.61300  -0.57130  -0.55681  -0.53124
 Alpha  occ. eigenvalues --   -0.49509  -0.49093  -0.47415  -0.42798  -0.39760
 Alpha  occ. eigenvalues --   -0.34986  -0.28821
 Alpha virt. eigenvalues --    0.10501   0.14872   0.23923   0.24836   0.27553
 Alpha virt. eigenvalues --    0.29314   0.29538   0.32611   0.33313   0.35118
 Alpha virt. eigenvalues --    0.36503   0.37217   0.37634   0.39587   0.43560
 Alpha virt. eigenvalues --    0.47104   0.53938   0.57874   0.60036   0.61527
 Alpha virt. eigenvalues --    0.64850   0.70013   0.75276   0.84062   0.92219
 Alpha virt. eigenvalues --    0.93866   0.94501   0.97176   0.98569   0.99987
 Alpha virt. eigenvalues --    1.03043   1.04955   1.07407   1.08589   1.10071
 Alpha virt. eigenvalues --    1.10410   1.11026   1.12359   1.13928   1.15715
 Alpha virt. eigenvalues --    1.16960   1.20398   1.23710   1.27313   1.29418
 Alpha virt. eigenvalues --    1.30604   1.30934   1.34031   1.37599   1.38633
 Alpha virt. eigenvalues --    1.40983   1.41276   1.43173   1.45836   1.57502
 Alpha virt. eigenvalues --    1.61315   1.66512   1.68070   1.70444   1.71542
 Alpha virt. eigenvalues --    1.75316   1.78388   1.87112   1.94073   2.03456
 Alpha virt. eigenvalues --    2.18111   2.31489   2.36916   2.41849
     Molecular Orbital Coefficients:
                           1         2         3         4         5
                           O         O         O         O         O
     Eigenvalues --   -11.18905 -11.18441 -11.18381 -11.18311 -11.18267
   1 1   C  1S          0.00517   0.96879   0.10173   0.15271   0.04562
   2        2S          0.00059   0.09751   0.01062   0.01397  -0.00014
   3        2PX        -0.00026  -0.00084   0.00052   0.00135  -0.00013
   4        2PY         0.00013  -0.00038  -0.00025  -0.00089   0.00191
   5        2PZ         0.00001  -0.00060   0.00014   0.00024   0.00087
   6        3S          0.00145  -0.08566  -0.01722  -0.00198   0.03059
   7        3PX        -0.00136   0.01009   0.00759  -0.01421  -0.00466
   8        3PY         0.00122   0.00605   0.00295   0.00911  -0.01583
   9        3PZ        -0.00064   0.00917   0.00271  -0.00300  -0.00809
  10 2   C  1S          0.00303  -0.00633   0.02649  -0.26347   0.94743
  11        2S          0.00020  -0.00454   0.00231  -0.02747   0.09499
  12        2PX        -0.00020   0.00105  -0.00006   0.00103  -0.00089
  13        2PY        -0.00028  -0.00173   0.00015  -0.00106  -0.00043
  14        2PZ        -0.00004   0.00015  -0.00009   0.00038  -0.00018
  15        3S          0.00377   0.02735   0.00464   0.02426  -0.08158
  16        3PX        -0.00127  -0.01122  -0.00379  -0.00205   0.01382
  17        3PY        -0.00012   0.01211   0.00031   0.00732  -0.00076
  18        3PZ        -0.00070  -0.00260  -0.00056   0.00015   0.00580
  19 3   C  1S          0.00215  -0.01197   0.00087  -0.00872  -0.02016
  20        2S          0.00085  -0.00168   0.00049  -0.00131  -0.00398
  21        2PX        -0.00006  -0.00028  -0.00006   0.00038  -0.00038
  22        2PY         0.00044  -0.00086  -0.00011  -0.00027  -0.00096
  23        2PZ         0.00025  -0.00042  -0.00001   0.00000  -0.00034
  24        3S         -0.00290  -0.00133  -0.00564   0.00159   0.02005
  25        3PX         0.00191   0.00021   0.00217  -0.00223   0.00553
  26        3PY        -0.00451  -0.00190  -0.00116  -0.00101   0.01513
  27        3PZ        -0.00319   0.00023  -0.00194   0.00095   0.00769
  28 4   C  1S         -0.00917  -0.14007  -0.17689   0.92478   0.26101
  29        2S         -0.00075  -0.01591  -0.02264   0.09130   0.02571
  30        2PX         0.00065  -0.00111   0.00183   0.00039  -0.00071
  31        2PY         0.00025   0.00080   0.00151  -0.00038   0.00035
  32        2PZ         0.00004  -0.00046  -0.00022   0.00028  -0.00004
  33        3S         -0.00155   0.02775   0.04970  -0.06975  -0.02672
  34        3PX        -0.00260   0.01556  -0.01310   0.00121   0.00231
  35        3PY         0.00330  -0.01164  -0.01678   0.00641   0.00699
  36        3PZ        -0.00217   0.00619   0.00382  -0.00349  -0.00084
  37 5   C  1S         -0.04355   0.00838  -0.02120   0.01728  -0.07795
  38        2S         -0.00771   0.00130  -0.00255   0.00222  -0.00865
  39        2PX         0.00123   0.00019  -0.00001   0.00022  -0.00088
  40        2PY        -0.00096   0.00013  -0.00054   0.00018  -0.00073
  41        2PZ        -0.00020   0.00007  -0.00002   0.00027  -0.00038
  42        3S          0.01459  -0.00233   0.00426  -0.00357   0.00374
  43        3PX        -0.00554  -0.00066   0.00277  -0.00217   0.00454
  44        3PY         0.00580  -0.00161   0.00295  -0.00179  -0.00166
  45        3PZ         0.00468  -0.00111   0.00115  -0.00108  -0.00179
  46 6   C  1S         -0.04538  -0.12670   0.96449   0.15972   0.01505
  47        2S         -0.00744  -0.01230   0.09728   0.01140   0.00012
  48        2PX         0.00019  -0.00074   0.00106  -0.00249  -0.00062
  49        2PY         0.00097  -0.00006  -0.00043  -0.00026  -0.00019
  50        2PZ        -0.00046  -0.00030   0.00046  -0.00049   0.00001
  51        3S          0.02576   0.00592  -0.09087   0.01538   0.01246
  52        3PX        -0.00599   0.00241  -0.01362   0.01407   0.00726
  53        3PY        -0.01485   0.00471   0.01057  -0.00056  -0.00233
  54        3PZ         0.00548  -0.00041  -0.00783   0.00389   0.00186
  55 7   C  1S         -0.00049  -0.00022  -0.01223  -0.00057  -0.00771
  56        2S         -0.00021  -0.00017  -0.00190  -0.00013  -0.00149
  57        2PX        -0.00014  -0.00032   0.00011   0.00013  -0.00067
  58        2PY         0.00000  -0.00035  -0.00083  -0.00021  -0.00026
  59        2PZ        -0.00004   0.00028   0.00071  -0.00010   0.00039
  60        3S          0.00576   0.00155  -0.00151   0.00136   0.00403
  61        3PX        -0.00845   0.00066  -0.00349  -0.00009   0.00177
  62        3PY         0.00945   0.00235  -0.00137   0.00043   0.00220
  63        3PZ         0.00128  -0.00295  -0.00126   0.00032  -0.00469
  64 8   C  1S          0.98541  -0.01180   0.04070   0.01691  -0.00334
  65        2S          0.10066  -0.00079   0.00152   0.00158   0.00012
  66        2PX         0.00025   0.00035  -0.00105  -0.00095   0.00048
  67        2PY        -0.00019   0.00020  -0.00096  -0.00056  -0.00007
  68        2PZ        -0.00018   0.00008   0.00018   0.00007   0.00006
  69        3S         -0.08989   0.00139   0.01643  -0.00526  -0.00256
  70        3PX         0.00077  -0.00318   0.01750   0.00170  -0.00796
  71        3PY        -0.00422   0.00242   0.01538  -0.00015  -0.00046
  72        3PZ         0.00184  -0.00193  -0.00291  -0.00007  -0.00028
  73 9   H  1S         -0.00006  -0.00094  -0.00028  -0.00052  -0.00030
  74        2S          0.00019   0.00832  -0.00032   0.00367   0.00487
  75 10  H  1S         -0.00004  -0.00016   0.00011  -0.00004  -0.00130
  76        2S          0.00025   0.00311   0.00087  -0.00146   0.00835
  77 11  H  1S         -0.00048   0.00005  -0.00010   0.00026  -0.00052
  78        2S         -0.00174  -0.00005  -0.00060   0.00025   0.00261
  79 12  H  1S         -0.00030  -0.00031  -0.00003  -0.00103  -0.00047
  80        2S         -0.00027   0.00161   0.00245   0.00975   0.00177
  81 13  H  1S         -0.00036  -0.00010   0.00032  -0.00017  -0.00011
  82        2S         -0.00010  -0.00080   0.00114  -0.00092   0.00005
  83 14  H  1S         -0.00053  -0.00008  -0.00134  -0.00044   0.00008
  84        2S          0.00072  -0.00095   0.00750   0.00432   0.00157
  85 15  C  1S         -0.00058   0.00013  -0.00564  -0.00471  -0.00040
  86        2S         -0.00383   0.00013  -0.00160  -0.00137  -0.00000
  87        2PX        -0.00173  -0.00007  -0.00022  -0.00020  -0.00019
  88        2PY        -0.00009   0.00008  -0.00013  -0.00033  -0.00012
  89        2PZ        -0.00016  -0.00006  -0.00000   0.00012   0.00001
  90        3S          0.02606  -0.00237   0.01011   0.00441  -0.00441
  91        3PX         0.01324  -0.00109   0.00470   0.00286  -0.00196
  92        3PY         0.00217  -0.00148  -0.00272   0.00266   0.00036
  93        3PZ         0.00094   0.00061   0.00178  -0.00060  -0.00062
  94 16  H  1S         -0.00106   0.00022   0.00026  -0.00047  -0.00003
  95        2S         -0.00019   0.00056   0.00051  -0.00061  -0.00026
  96 17  H  1S         -0.00096  -0.00007  -0.00063   0.00015   0.00020
  97        2S          0.00048  -0.00074  -0.00070   0.00137   0.00011
  98 18  H  1S         -0.00101  -0.00127  -0.00004  -0.00016  -0.00135
  99        2S          0.00136   0.00369   0.00219  -0.00050   0.00382
 100 19  H  1S         -0.00021   0.00023  -0.00026  -0.00009   0.00030
 101        2S         -0.00042   0.00142   0.00008  -0.00009   0.00147
                           6         7         8         9        10
                           O         O         O         O         O
     Eigenvalues --   -11.18077 -11.17461 -11.17366 -11.16592  -1.13959
   1 1   C  1S         -0.00496   0.01354   0.00349   0.00122  -0.07312
   2        2S         -0.00056   0.00055   0.00013  -0.00005   0.08103
   3        2PX        -0.00000   0.00002   0.00021   0.00015  -0.01602
   4        2PY         0.00005   0.00099   0.00048  -0.00002  -0.02748
   5        2PZ        -0.00002   0.00067   0.00021   0.00004  -0.01784
   6        3S          0.00315  -0.00173   0.00061   0.00088   0.14255
   7        3PX         0.00023   0.00476   0.00005  -0.00081  -0.00316
   8        3PY        -0.00092  -0.00277   0.00003   0.00131  -0.00246
   9        3PZ         0.00020  -0.00013  -0.00040  -0.00056   0.00037
  10 2   C  1S          0.08024   0.01653   0.00986  -0.00042  -0.07372
  11        2S          0.00729  -0.00047   0.00014   0.00002   0.08236
  12        2PX         0.00067   0.00056   0.00069  -0.00001  -0.03484
  13        2PY         0.00081   0.00067   0.00002   0.00000   0.01178
  14        2PZ         0.00040   0.00048   0.00018  -0.00003  -0.00963
  15        3S         -0.00947   0.01880   0.00571   0.00052   0.13672
  16        3PX         0.00285  -0.01045  -0.00376   0.00007  -0.00123
  17        3PY         0.00001  -0.01227  -0.00283   0.00044   0.00272
  18        3PZ        -0.00045  -0.00684  -0.00312   0.00045   0.00416
  19 3   C  1S         -0.01294   0.97956   0.11916   0.00082  -0.07613
  20        2S         -0.00607   0.09818   0.01115   0.00005   0.08461
  21        2PX         0.00216  -0.00045   0.00087   0.00010  -0.03187
  22        2PY         0.00009   0.00061   0.00007  -0.00002   0.01493
  23        2PZ        -0.00091   0.00088  -0.00039  -0.00001   0.02502
  24        3S          0.03378  -0.08451  -0.00852  -0.00066   0.14589
  25        3PX        -0.01768   0.00900  -0.00373   0.00043   0.00054
  26        3PY         0.00089  -0.00695  -0.00577   0.00032   0.01197
  27        3PZ         0.00907  -0.01134  -0.00273  -0.00021   0.00872
  28 4   C  1S          0.00130   0.01166   0.00165   0.00336  -0.07554
  29        2S         -0.00000   0.00034  -0.00006  -0.00032   0.08556
  30        2PX        -0.00015   0.00002   0.00008   0.00019  -0.01655
  31        2PY        -0.00001   0.00064   0.00026   0.00023  -0.03244
  32        2PZ         0.00010   0.00005  -0.00004  -0.00003   0.00789
  33        3S          0.00429   0.00288   0.00586   0.00419   0.13173
  34        3PX        -0.00229   0.00192  -0.00458  -0.00463   0.00866
  35        3PY        -0.00056  -0.00338  -0.00069  -0.00145   0.00319
  36        3PZ        -0.00069   0.00202  -0.00092  -0.00059   0.00222
  37 5   C  1S          0.98271   0.01047   0.00473   0.00084  -0.08132
  38        2S          0.09871  -0.00337  -0.00145  -0.00003   0.09332
  39        2PX        -0.00013  -0.00192  -0.00022  -0.00008   0.01565
  40        2PY         0.00101  -0.00113  -0.00010  -0.00013   0.03508
  41        2PZ         0.00068  -0.00010  -0.00026  -0.00010   0.01702
  42        3S         -0.08190   0.02778   0.02243   0.00057   0.13926
  43        3PX        -0.00805   0.01667  -0.01138   0.00106   0.01470
  44        3PY        -0.01111   0.01008   0.00939   0.00067  -0.00531
  45        3PZ        -0.00660   0.00173   0.01262   0.00047  -0.00932
  46 6   C  1S          0.01822  -0.00169   0.01184   0.00637  -0.08452
  47        2S          0.00159   0.00005   0.00028  -0.00017   0.09598
  48        2PX         0.00017  -0.00021  -0.00003   0.00090   0.02085
  49        2PY         0.00043  -0.00014   0.00091   0.00050  -0.02630
  50        2PZ         0.00014   0.00014  -0.00046  -0.00007   0.01593
  51        3S         -0.00050  -0.00201   0.00151  -0.00150   0.15733
  52        3PX        -0.00642   0.00115  -0.00886  -0.00499   0.02025
  53        3PY        -0.00136   0.00238  -0.00589  -0.00384   0.00746
  54        3PZ        -0.00045  -0.00122   0.00115   0.00062  -0.00066
  55 7   C  1S         -0.00449  -0.11952   0.98058   0.02056  -0.09139
  56        2S         -0.00086  -0.01317   0.10516   0.00105   0.08427
  57        2PX        -0.00007  -0.00075  -0.00003   0.00078   0.00416
  58        2PY        -0.00024   0.00029   0.00010  -0.00027   0.01925
  59        2PZ        -0.00004   0.00084  -0.00046   0.00034  -0.03384
  60        3S          0.00811   0.00881  -0.10488  -0.00024   0.25781
  61        3PX         0.01322  -0.00305   0.00093  -0.00047   0.00078
  62        3PY        -0.00776   0.00009  -0.00465   0.00110   0.00972
  63        3PZ        -0.00308  -0.00189   0.01180  -0.00115  -0.01998
  64 8   C  1S          0.04330  -0.00170   0.00090   0.00055  -0.10279
  65        2S          0.00116   0.00015  -0.00081  -0.00344   0.11323
  66        2PX        -0.00150   0.00015  -0.00041   0.00245   0.00963
  67        2PY         0.00147  -0.00012   0.00063   0.00042  -0.00175
  68        2PZ         0.00020   0.00007  -0.00052   0.00023  -0.00089
  69        3S          0.00459  -0.00095   0.01375   0.02153   0.20397
  70        3PX         0.00900  -0.00150   0.01484  -0.01575  -0.01899
  71        3PY        -0.01145   0.00419  -0.02094  -0.00375   0.02982
  72        3PZ         0.00320  -0.00133   0.01040  -0.00086  -0.01258
  73 9   H  1S         -0.00014  -0.00026  -0.00012  -0.00009   0.02644
  74        2S         -0.00012   0.00129   0.00077   0.00007  -0.00672
  75 10  H  1S         -0.00012  -0.00068  -0.00003  -0.00005   0.02639
  76        2S          0.00090   0.00338   0.00177  -0.00004  -0.00694
  77 11  H  1S         -0.00033  -0.00140  -0.00057  -0.00001   0.02698
  78        2S          0.00408   0.00796   0.00204   0.00002  -0.00355
  79 12  H  1S         -0.00016   0.00018  -0.00028  -0.00007   0.02764
  80        2S          0.00012   0.00129   0.00066   0.00085  -0.00800
  81 13  H  1S         -0.00150  -0.00013  -0.00082   0.00008   0.02992
  82        2S          0.00879   0.00370   0.00264   0.00057  -0.00613
  83 14  H  1S         -0.00049  -0.00007  -0.00042  -0.00028   0.03277
  84        2S         -0.00090  -0.00031   0.00059   0.00005  -0.00239
  85 15  C  1S         -0.00086   0.00165  -0.02083   0.98659  -0.05156
  86        2S         -0.00033   0.00031  -0.00345   0.09631   0.06033
  87        2PX        -0.00010   0.00007  -0.00056   0.00031   0.04776
  88        2PY        -0.00015  -0.00004   0.00059   0.00010   0.00480
  89        2PZ        -0.00019   0.00007  -0.00020   0.00000   0.00521
  90        3S          0.00413  -0.00080   0.00896  -0.06901   0.07757
  91        3PX         0.00160  -0.00050   0.00447  -0.00869  -0.00696
  92        3PY         0.00450  -0.00097   0.00384  -0.00076  -0.01101
  93        3PZ        -0.00000   0.00003  -0.00116  -0.00109   0.00226
  94 16  H  1S         -0.00050   0.00010  -0.00055  -0.00118   0.02022
  95        2S         -0.00122   0.00016  -0.00058   0.01147   0.00205
  96 17  H  1S          0.00032  -0.00004   0.00020  -0.00118   0.01899
  97        2S          0.00168  -0.00043   0.00076   0.01164  -0.00541
  98 18  H  1S         -0.00125   0.00004   0.00170   0.00001   0.03988
  99        2S         -0.00002  -0.00041   0.01285   0.00080  -0.01204
 100 19  H  1S         -0.00034  -0.00028   0.00177  -0.00027   0.03189
 101        2S          0.00135  -0.00112   0.01301   0.00067  -0.00693
                          11        12        13        14        15
                           O         O         O         O         O
     Eigenvalues --    -1.08008  -1.06068  -0.97492  -0.93322  -0.85706
   1 1   C  1S          0.08967  -0.08822  -0.06226  -0.08169  -0.05347
   2        2S         -0.09924   0.09546   0.06704   0.08532   0.05508
   3        2PX        -0.01625  -0.03454   0.06758   0.00332  -0.07120
   4        2PY         0.05492   0.01295  -0.07705   0.00609   0.11649
   5        2PZ         0.01529  -0.01988   0.00501   0.00126  -0.01317
   6        3S         -0.18897   0.19773   0.15600   0.22350   0.15925
   7        3PX         0.00001  -0.00034   0.01195   0.00015  -0.02460
   8        3PY        -0.00481   0.00046  -0.01055  -0.00027   0.03959
   9        3PZ         0.00093  -0.00597   0.00069  -0.00333  -0.00954
  10 2   C  1S          0.11502  -0.01480  -0.09873   0.00875   0.08746
  11        2S         -0.12512   0.01604   0.10484  -0.00862  -0.08992
  12        2PX         0.03687  -0.00037  -0.00213   0.00213  -0.02081
  13        2PY        -0.01964   0.06797   0.05252   0.10609   0.03183
  14        2PZ         0.01152   0.01656   0.01153   0.04093   0.00021
  15        3S         -0.25689   0.03565   0.24917  -0.02286  -0.26274
  16        3PX         0.01091  -0.00159  -0.00191   0.00088  -0.00162
  17        3PY        -0.00238  -0.00243   0.00931   0.02087   0.01378
  18        3PZ         0.00451  -0.00122  -0.00023   0.01588   0.00324
  19 3   C  1S          0.09060   0.07892   0.01380   0.11477  -0.00658
  20        2S         -0.09932  -0.08622  -0.01570  -0.11957   0.00815
  21        2PX         0.00526   0.05984   0.07065   0.00765  -0.09768
  22        2PY        -0.02911   0.02384   0.05123   0.01351  -0.07644
  23        2PZ        -0.02794  -0.01440   0.01066   0.00041  -0.02824
  24        3S         -0.19149  -0.17146  -0.03145  -0.31469   0.01605
  25        3PX         0.00614  -0.00035   0.00656   0.00875  -0.02555
  26        3PY         0.00883  -0.00643   0.00753   0.00550  -0.02718
  27        3PZ        -0.00233  -0.00984   0.00492  -0.00707  -0.01535
  28 4   C  1S          0.01236  -0.12584   0.08667  -0.00637  -0.07153
  29        2S         -0.01298   0.13755  -0.09287   0.00622   0.07427
  30        2PX        -0.05547  -0.02109   0.08549   0.08836   0.11626
  31        2PY         0.00815  -0.02805  -0.00038  -0.00738   0.02650
  32        2PZ        -0.01163   0.00915   0.01512   0.02540   0.02317
  33        3S         -0.03362   0.28498  -0.21465   0.01524   0.20403
  34        3PX         0.00667  -0.00985   0.01073   0.02211   0.04790
  35        3PY         0.00244  -0.00136  -0.00079  -0.00467   0.01470
  36        3PZ         0.00162   0.00181   0.00052   0.01141   0.01146
  37 5   C  1S          0.03741   0.11116   0.07759   0.01203  -0.07273
  38        2S         -0.03794  -0.12157  -0.07981  -0.01314   0.07229
  39        2PX        -0.06182  -0.02628  -0.00945  -0.12811   0.03785
  40        2PY        -0.00967  -0.02653  -0.00714   0.00596  -0.02719
  41        2PZ         0.01341  -0.01499  -0.00546   0.06790  -0.03827
  42        3S         -0.09339  -0.23071  -0.19960  -0.03942   0.22681
  43        3PX         0.01265  -0.01485  -0.00790  -0.01008   0.00723
  44        3PY        -0.01390   0.00033  -0.00869   0.00053   0.00111
  45        3PZ        -0.01224   0.00228  -0.00658   0.01050  -0.00320
  46 6   C  1S         -0.05985  -0.09114   0.07658   0.07303   0.07707
  47        2S          0.06710   0.10058  -0.08231  -0.07629  -0.08198
  48        2PX        -0.03116   0.06606  -0.09057   0.02059   0.04195
  49        2PY        -0.03677   0.02524  -0.04618  -0.00905   0.04694
  50        2PZ         0.01164   0.00653   0.00020   0.00848  -0.01070
  51        3S          0.12634   0.19500  -0.19415  -0.19866  -0.21845
  52        3PX         0.00873  -0.01257  -0.02832   0.01190   0.01989
  53        3PY         0.00565  -0.00192  -0.00816   0.00459   0.01952
  54        3PZ         0.00104   0.00025  -0.00203  -0.00138  -0.00672
  55 7   C  1S         -0.04595   0.08356   0.03416  -0.13419   0.03768
  56        2S          0.04180  -0.07548  -0.02977   0.11930  -0.03315
  57        2PX        -0.04144  -0.02179  -0.04700  -0.00755   0.01138
  58        2PY         0.03112   0.01889   0.02423  -0.00530  -0.05233
  59        2PZ        -0.00894   0.02950   0.01563  -0.00044  -0.01812
  60        3S          0.13446  -0.24768  -0.11428   0.44518  -0.13908
  61        3PX         0.00138   0.00540  -0.00321  -0.00391  -0.00923
  62        3PY         0.00035  -0.00908  -0.00923   0.00152  -0.01713
  63        3PZ        -0.02069   0.02541   0.01472  -0.01993  -0.00555
  64 8   C  1S         -0.11937   0.00620  -0.06311   0.01224   0.03630
  65        2S          0.12784  -0.01053   0.06416  -0.01234  -0.03678
  66        2PX        -0.03453   0.00296  -0.12244   0.06877  -0.13222
  67        2PY         0.00551   0.05987  -0.02005  -0.09640  -0.05466
  68        2PZ        -0.00574  -0.01831  -0.00672   0.05224  -0.00640
  69        3S          0.26870   0.00334   0.17232  -0.04652  -0.10036
  70        3PX        -0.01816   0.01931  -0.00498   0.01667  -0.05690
  71        3PY         0.00960  -0.02053  -0.02065  -0.00834  -0.01415
  72        3PZ        -0.00621   0.00817   0.00593   0.01131  -0.00346
  73 9   H  1S         -0.03642   0.04064   0.03287   0.05297   0.04968
  74        2S          0.00320   0.00238   0.00737   0.01708   0.02188
  75 10  H  1S         -0.04817   0.00477   0.05504  -0.00871  -0.07109
  76        2S         -0.00050  -0.00014   0.01353  -0.00372  -0.03131
  77 11  H  1S         -0.03698  -0.03270  -0.00420  -0.07233   0.00279
  78        2S          0.00213  -0.00154   0.00130  -0.02415  -0.00067
  79 12  H  1S         -0.00637   0.05665  -0.04607   0.00551   0.06648
  80        2S         -0.00097   0.00222  -0.01038   0.00210   0.02701
  81 13  H  1S         -0.01184  -0.04910  -0.04197  -0.00245   0.06121
  82        2S          0.00115  -0.00180  -0.01124   0.00176   0.02990
  83 14  H  1S          0.03003   0.03915  -0.03372  -0.05451  -0.04670
  84        2S          0.00428  -0.00131  -0.00507  -0.02146  -0.01308
  85 15  C  1S         -0.08459   0.00730  -0.11535   0.05329  -0.10361
  86        2S          0.09487  -0.00754   0.12297  -0.05628   0.10802
  87        2PX         0.06631  -0.00585   0.05498  -0.01391  -0.01661
  88        2PY         0.00821   0.00972   0.00413  -0.02740  -0.01322
  89        2PZ         0.00714  -0.00410   0.00785   0.00926   0.00104
  90        3S          0.15867  -0.01129   0.28912  -0.13400   0.29078
  91        3PX        -0.00045   0.00012   0.01736  -0.00231  -0.01042
  92        3PY        -0.00052   0.01006   0.00990  -0.01580  -0.01027
  93        3PZ         0.00081  -0.00190   0.00058   0.00559  -0.00066
  94 16  H  1S          0.03538  -0.00044   0.05714  -0.03996   0.07163
  95        2S          0.00107   0.00079   0.00685  -0.01318   0.02643
  96 17  H  1S          0.03476  -0.00585   0.05993  -0.02070   0.08084
  97        2S         -0.00038  -0.00050   0.01538  -0.00226   0.03051
  98 18  H  1S          0.01162  -0.03133  -0.01700   0.07099  -0.03613
  99        2S          0.00225  -0.00152  -0.00868   0.01138  -0.00890
 100 19  H  1S          0.02225  -0.03629  -0.00984   0.07656  -0.00986
 101        2S          0.00490  -0.00138   0.00152   0.01666   0.00274
                          16        17        18        19        20
                           O         O         O         O         O
     Eigenvalues --    -0.77729  -0.74586  -0.68536  -0.66001  -0.63715
   1 1   C  1S         -0.07152  -0.02319   0.00685  -0.02785   0.03129
   2        2S          0.07336   0.02390  -0.01169   0.02313  -0.03211
   3        2PX         0.07044  -0.10311   0.08718   0.04695  -0.08326
   4        2PY        -0.02697   0.12290   0.09748   0.13997   0.04780
   5        2PZ         0.03766  -0.02554   0.04496   0.07359  -0.06227
   6        3S          0.23836   0.07961  -0.00930   0.12161  -0.11473
   7        3PX         0.02155  -0.05027   0.05687   0.03387  -0.05295
   8        3PY        -0.00674   0.06206   0.06248   0.09906   0.00865
   9        3PZ         0.01275  -0.01274   0.02283   0.05632  -0.04178
  10 2   C  1S          0.02864   0.05660  -0.01343   0.03619  -0.03071
  11        2S         -0.02795  -0.05767   0.00933  -0.03978   0.03254
  12        2PX        -0.01249  -0.04955   0.16353   0.02592  -0.01867
  13        2PY         0.15831  -0.07090  -0.03713  -0.04667  -0.12990
  14        2PZ         0.06250  -0.06444   0.02764   0.00337  -0.04642
  15        3S         -0.10045  -0.19582   0.05824  -0.11383   0.10882
  16        3PX        -0.00533  -0.02401   0.11456   0.01219   0.00206
  17        3PY         0.07019  -0.01963  -0.02105  -0.01757  -0.08044
  18        3PZ         0.02976  -0.02771   0.02122   0.00563  -0.02897
  19 3   C  1S          0.04369  -0.07058  -0.00151  -0.03321   0.02612
  20        2S         -0.04357   0.07154  -0.00447   0.03253  -0.02437
  21        2PX        -0.13746   0.02571   0.11556   0.02101  -0.00596
  22        2PY        -0.07262  -0.01752  -0.07386  -0.04624   0.14388
  23        2PZ        -0.02043  -0.04340  -0.08819  -0.00786   0.14638
  24        3S         -0.14971   0.24172   0.02929   0.12282  -0.10584
  25        3PX        -0.05708   0.02049   0.07387   0.02130  -0.03057
  26        3PY        -0.03112   0.00559  -0.04109  -0.03081   0.09565
  27        3PZ        -0.01464  -0.01663  -0.05539  -0.00154   0.10515
  28 4   C  1S          0.07414  -0.01301  -0.00962   0.03396  -0.02607
  29        2S         -0.07637   0.01253   0.00513  -0.03978   0.02268
  30        2PX         0.04716   0.15586   0.01207   0.08796   0.15333
  31        2PY        -0.04800  -0.02748   0.12363   0.08385   0.11473
  32        2PZ         0.03235   0.05676  -0.03303   0.02131  -0.02828
  33        3S         -0.24817   0.05759   0.04061  -0.10456   0.10934
  34        3PX         0.00932   0.06873   0.01229   0.04384   0.10831
  35        3PY        -0.02005  -0.02187   0.08032   0.04950   0.09068
  36        3PZ         0.01160   0.02938  -0.02160   0.01176  -0.02326
  37 5   C  1S         -0.08022   0.05606  -0.00763   0.03061  -0.02594
  38        2S          0.08158  -0.05246   0.00536  -0.03004   0.02651
  39        2PX         0.00868   0.10091  -0.08511   0.07328  -0.07586
  40        2PY        -0.03278   0.04420  -0.12970   0.04158   0.06291
  41        2PZ        -0.05222  -0.04102  -0.06731   0.06899   0.10110
  42        3S          0.27284  -0.19762   0.03943  -0.12564   0.08057
  43        3PX        -0.00087   0.06110  -0.04536   0.04980  -0.04761
  44        3PY        -0.00715   0.01805  -0.09644   0.03107   0.03799
  45        3PZ        -0.01597  -0.02800  -0.05233   0.04989   0.06304
  46 6   C  1S         -0.03664   0.04966   0.00367  -0.02295   0.03457
  47        2S          0.03766  -0.04878  -0.00685   0.01913  -0.03855
  48        2PX        -0.13700  -0.03451  -0.04595  -0.18589  -0.12052
  49        2PY        -0.10186  -0.13410   0.05577   0.03917  -0.01450
  50        2PZ         0.01172   0.05609  -0.02733  -0.03142  -0.03686
  51        3S          0.11469  -0.18023  -0.00525   0.10184  -0.10245
  52        3PX        -0.05673  -0.01879  -0.02324  -0.11771  -0.04893
  53        3PY        -0.04428  -0.05556   0.03960   0.04165   0.00667
  54        3PZ         0.00378   0.02508  -0.01753  -0.01980  -0.02911
  55 7   C  1S          0.05748   0.01156   0.00081  -0.04429   0.01096
  56        2S         -0.05090  -0.00840  -0.00301   0.03404  -0.00946
  57        2PX         0.04352  -0.06474  -0.12098   0.08390   0.08833
  58        2PY         0.00077   0.12954  -0.05059  -0.03902  -0.06531
  59        2PZ        -0.06676   0.01114  -0.02508   0.14872  -0.09571
  60        3S         -0.22218  -0.05765  -0.00099   0.20126  -0.04379
  61        3PX         0.01352  -0.01686  -0.07757   0.05162   0.05582
  62        3PY         0.00310   0.05222  -0.04572  -0.01439  -0.03355
  63        3PZ        -0.03256   0.00773  -0.02744   0.10389  -0.06936
  64 8   C  1S         -0.04227  -0.08760  -0.03325   0.03926  -0.02446
  65        2S          0.04591   0.08688   0.03474  -0.03963   0.02655
  66        2PX         0.03699   0.04587  -0.06451  -0.00081  -0.10116
  67        2PY         0.12302  -0.01083  -0.05503   0.11723   0.03811
  68        2PZ        -0.06265   0.02818   0.00620  -0.01201  -0.07294
  69        3S          0.13965   0.31073   0.11506  -0.15616   0.09689
  70        3PX         0.01715   0.05602  -0.04230  -0.00170  -0.07249
  71        3PY         0.06691  -0.01920  -0.03175   0.08700   0.04112
  72        3PZ        -0.03241   0.02229   0.00299  -0.01144  -0.05502
  73 9   H  1S          0.07386   0.02271   0.07183   0.11708  -0.05771
  74        2S          0.04126   0.01009   0.05555   0.08260  -0.03809
  75 10  H  1S         -0.03415  -0.07165   0.10676  -0.01216   0.02472
  76        2S         -0.01624  -0.04206   0.07340  -0.00287   0.01059
  77 11  H  1S         -0.04976   0.08305   0.09251   0.05300  -0.12787
  78        2S         -0.02656   0.04901   0.06687   0.03570  -0.09180
  79 12  H  1S         -0.07713   0.00354   0.08145   0.02344   0.11319
  80        2S         -0.04104   0.00089   0.05928   0.02517   0.08238
  81 13  H  1S          0.08541  -0.07244   0.10230  -0.08556  -0.01843
  82        2S          0.04654  -0.04065   0.06772  -0.05651  -0.01991
  83 14  H  1S          0.03570  -0.08742   0.03832   0.11703   0.02112
  84        2S          0.01630  -0.05973   0.02651   0.08576   0.02240
  85 15  C  1S          0.04306   0.05441   0.03478  -0.00380   0.01166
  86        2S         -0.04370  -0.05281  -0.03174   0.00115  -0.00687
  87        2PX         0.04672   0.10873   0.12701  -0.07485   0.13073
  88        2PY         0.05465   0.00015  -0.01860   0.09631   0.09158
  89        2PZ        -0.02060   0.02235   0.02508  -0.03715  -0.03470
  90        3S         -0.14116  -0.18267  -0.14325   0.03418  -0.07770
  91        3PX         0.02044   0.05014   0.06782  -0.03123   0.06711
  92        3PY         0.02511   0.00467  -0.01442   0.06545   0.05959
  93        3PZ        -0.01299   0.01198   0.01394  -0.01903  -0.02961
  94 16  H  1S         -0.02235  -0.08297  -0.08416   0.08289  -0.00620
  95        2S         -0.00749  -0.05510  -0.05821   0.06999  -0.00663
  96 17  H  1S         -0.07139  -0.06820  -0.05005  -0.02926  -0.10392
  97        2S         -0.04402  -0.04040  -0.03281  -0.01931  -0.08539
  98 18  H  1S         -0.04891   0.00466  -0.06682   0.11461  -0.03804
  99        2S         -0.02241   0.00241  -0.04204   0.08290  -0.03112
 100 19  H  1S         -0.06674  -0.03536   0.05662   0.05136  -0.04069
 101        2S         -0.03707  -0.02528   0.04100   0.03492  -0.03475
                          21        22        23        24        25
                           O         O         O         O         O
     Eigenvalues --    -0.62035  -0.61300  -0.57130  -0.55681  -0.53124
   1 1   C  1S         -0.00642   0.02761   0.01734   0.01691  -0.00744
   2        2S          0.00744  -0.03420  -0.01716  -0.01573   0.00773
   3        2PX         0.11118   0.07796  -0.06780   0.07225   0.10979
   4        2PY        -0.10932   0.11975  -0.06080  -0.15519  -0.00348
   5        2PZ         0.02843   0.11859  -0.01222  -0.09696   0.07582
   6        3S          0.01534  -0.06234  -0.05953  -0.07608   0.02501
   7        3PX         0.06325   0.05449  -0.06940   0.02096   0.10543
   8        3PY        -0.05955   0.07787  -0.07165  -0.12048   0.02569
   9        3PZ         0.02242   0.08730  -0.01716  -0.09360   0.06978
  10 2   C  1S          0.00547  -0.00495  -0.01383  -0.01402   0.02158
  11        2S         -0.00122   0.00011   0.01345   0.01680  -0.02242
  12        2PX        -0.08519   0.17876   0.06941   0.00278  -0.01513
  13        2PY         0.12963  -0.08597   0.01772   0.17273   0.04778
  14        2PZ         0.03395   0.11223   0.09293  -0.00191  -0.00843
  15        3S         -0.04270   0.04759   0.04522   0.03179  -0.06750
  16        3PX        -0.06325   0.14451   0.08176   0.01158  -0.04864
  17        3PY         0.08275  -0.05742  -0.00118   0.11385   0.03543
  18        3PZ         0.01390   0.08693   0.08223  -0.00922  -0.02029
  19 3   C  1S         -0.01688   0.01354   0.01868   0.01080  -0.01661
  20        2S          0.02238  -0.01267  -0.02011  -0.01243   0.01739
  21        2PX        -0.18567  -0.11355  -0.06570  -0.00901   0.05366
  22        2PY        -0.03060  -0.04352  -0.09281  -0.05456  -0.01227
  23        2PZ         0.03733   0.07238   0.02766  -0.12290  -0.07303
  24        3S          0.03364  -0.05837  -0.05071  -0.02639   0.04853
  25        3PX        -0.11396  -0.07969  -0.05537   0.00369   0.06896
  26        3PY        -0.01147  -0.01145  -0.05340  -0.03451  -0.03489
  27        3PZ         0.03281   0.05799   0.04561  -0.09811  -0.09223
  28 4   C  1S          0.00954  -0.01238  -0.03554  -0.01007  -0.00609
  29        2S         -0.01152   0.01107   0.04134   0.00585   0.00908
  30        2PX        -0.08388  -0.06231  -0.04375   0.05394  -0.18019
  31        2PY         0.10645   0.07262  -0.05533   0.17088  -0.04241
  32        2PZ        -0.07241   0.00000   0.03676  -0.11964  -0.02928
  33        3S         -0.03144   0.05153   0.09117   0.07224   0.00868
  34        3PX        -0.04578  -0.03170  -0.01686   0.03612  -0.11493
  35        3PY         0.07990   0.05883  -0.01501   0.16614  -0.04761
  36        3PZ        -0.04825  -0.00212   0.03041  -0.10555  -0.01724
  37 5   C  1S          0.00525  -0.02090  -0.00834   0.00544   0.00744
  38        2S          0.00051   0.02573   0.00914  -0.00436  -0.00898
  39        2PX         0.18795   0.09334   0.10138  -0.00499  -0.06162
  40        2PY         0.09028   0.08487  -0.10651  -0.01279   0.11572
  41        2PZ        -0.01688   0.02300  -0.04413  -0.08267   0.09803
  42        3S         -0.04879   0.05008   0.02143  -0.01493  -0.01864
  43        3PX         0.11337   0.05723   0.04982  -0.00278  -0.02290
  44        3PY         0.06892   0.05260  -0.10081  -0.01192   0.12452
  45        3PZ        -0.00068   0.02525  -0.03163  -0.07088   0.08589
  46 6   C  1S          0.00258   0.01317   0.02207   0.03334   0.01252
  47        2S         -0.00698  -0.01079  -0.02001  -0.03615  -0.00755
  48        2PX        -0.00142   0.08150   0.10495  -0.04586   0.19485
  49        2PY         0.16034  -0.04482  -0.03065  -0.03218   0.04943
  50        2PZ        -0.06823   0.05664   0.07945  -0.02504  -0.00862
  51        3S          0.01564  -0.05552  -0.08389  -0.10276  -0.06274
  52        3PX        -0.00375   0.05849   0.10601  -0.03096   0.14170
  53        3PY         0.10391  -0.04305  -0.04548  -0.04324   0.00978
  54        3PZ        -0.04429   0.05127   0.07914  -0.01596  -0.00069
  55 7   C  1S          0.00313   0.01404   0.00836  -0.01669  -0.01942
  56        2S         -0.00145  -0.00954  -0.01207   0.01407   0.01963
  57        2PX        -0.05061   0.07003   0.02844   0.00978   0.03544
  58        2PY         0.04603   0.14366  -0.02227   0.15507  -0.06045
  59        2PZ         0.05266  -0.06527   0.20984   0.00206  -0.12917
  60        3S         -0.01821  -0.07968   0.00657   0.05522   0.05654
  61        3PX        -0.03026   0.06818   0.04092   0.03332   0.02241
  62        3PY         0.02820   0.11775  -0.00111   0.11998  -0.04560
  63        3PZ         0.04291  -0.04841   0.16939   0.00698  -0.10607
  64 8   C  1S         -0.01463  -0.01939  -0.00987  -0.01515   0.00056
  65        2S          0.01511   0.01832   0.01272   0.01252   0.00223
  66        2PX        -0.13979   0.09640  -0.16331   0.12609  -0.09645
  67        2PY        -0.11691  -0.02709   0.08311  -0.01482  -0.08648
  68        2PZ         0.04780   0.03098   0.02476   0.03140  -0.05263
  69        3S          0.05572   0.07601   0.04448   0.05001  -0.00117
  70        3PX        -0.09424   0.05158  -0.15459   0.09922  -0.09352
  71        3PY        -0.08435  -0.03114   0.05866  -0.03945  -0.08263
  72        3PZ         0.03368   0.02272   0.01884   0.03382  -0.04147
  73 9   H  1S          0.01152   0.09186  -0.07584  -0.09509   0.08196
  74        2S          0.00796   0.08058  -0.05676  -0.07387   0.06781
  75 10  H  1S         -0.06464   0.14708   0.07911  -0.01100  -0.04401
  76        2S         -0.04957   0.11494   0.05753  -0.01355  -0.02690
  77 11  H  1S         -0.05800  -0.07192  -0.02887   0.06089   0.08330
  78        2S         -0.04764  -0.05243  -0.01377   0.05394   0.06002
  79 12  H  1S          0.05856   0.04812  -0.01460   0.15672  -0.04057
  80        2S          0.04897   0.03563  -0.02536   0.13020  -0.03630
  81 13  H  1S         -0.08906  -0.05283   0.05293   0.03131  -0.09405
  82        2S         -0.06801  -0.04631   0.03748   0.02529  -0.07681
  83 14  H  1S          0.07811  -0.08034  -0.10133  -0.01614  -0.07083
  84        2S          0.06082  -0.05954  -0.07420  -0.00010  -0.05733
  85 15  C  1S          0.01130  -0.01037  -0.00826   0.00255  -0.01245
  86        2S         -0.00549   0.00897   0.01489  -0.00703   0.01801
  87        2PX         0.16356  -0.06276   0.14153  -0.10686   0.09818
  88        2PY        -0.07456  -0.04098   0.15149   0.11041   0.18142
  89        2PZ         0.06818   0.00845   0.00229  -0.06255  -0.10280
  90        3S         -0.07980   0.04043  -0.03447   0.02205   0.00440
  91        3PX         0.09241  -0.05005   0.06621  -0.06835   0.04610
  92        3PY        -0.04904  -0.02501   0.11539   0.11285   0.16880
  93        3PZ         0.04611   0.00367   0.00225  -0.05731  -0.10456
  94 16  H  1S         -0.11862   0.00918   0.02373   0.11408   0.09786
  95        2S         -0.09689   0.00072   0.01009   0.09533   0.07389
  96 17  H  1S         -0.00766   0.04862  -0.12280  -0.04900  -0.15498
  97        2S         -0.00688   0.03451  -0.11154  -0.03692  -0.14415
  98 18  H  1S          0.01573   0.01532   0.10728   0.05380  -0.05537
  99        2S          0.01085   0.01467   0.09727   0.03300  -0.05667
 100 19  H  1S          0.01037  -0.12019   0.04364  -0.06975  -0.01164
 101        2S          0.00770  -0.09356   0.04340  -0.06640  -0.02439
                          26        27        28        29        30
                           O         O         O         O         O
     Eigenvalues --    -0.49509  -0.49093  -0.47415  -0.42798  -0.39760
   1 1   C  1S         -0.00673   0.00210   0.01520  -0.00673  -0.00860
   2        2S          0.00630  -0.00372  -0.01571   0.01038   0.01025
   3        2PX        -0.01285   0.05168   0.17487  -0.08271  -0.07958
   4        2PY        -0.02456   0.04325  -0.04818  -0.12843  -0.09719
   5        2PZ         0.01507   0.11743   0.05056   0.05265   0.14944
   6        3S          0.02304   0.00119  -0.05646   0.00684   0.03478
   7        3PX        -0.00418   0.06316   0.14472  -0.10242  -0.09389
   8        3PY        -0.01703   0.06978  -0.01141  -0.12691  -0.09478
   9        3PZ         0.02260   0.12762   0.05082   0.04945   0.17700
  10 2   C  1S          0.00746  -0.01557  -0.00603  -0.00496  -0.00209
  11        2S         -0.00939   0.01648   0.00735   0.00809   0.00211
  12        2PX        -0.02482  -0.16301  -0.10220  -0.04619  -0.13904
  13        2PY         0.01618  -0.12207   0.04112   0.07236  -0.04767
  14        2PZ        -0.00787  -0.08065  -0.05788   0.11262   0.17858
  15        3S         -0.01040   0.05216   0.01114   0.01991   0.00331
  16        3PX        -0.04518  -0.16805  -0.12141  -0.04455  -0.16115
  17        3PY         0.00190  -0.07607   0.03884   0.03310  -0.06819
  18        3PZ        -0.00777  -0.06995  -0.07000   0.11299   0.19403
  19 3   C  1S          0.02055  -0.00763  -0.01089   0.00094  -0.00431
  20        2S         -0.02381   0.00872   0.00983   0.00293   0.00178
  21        2PX         0.16525   0.05593   0.05092   0.03137   0.08081
  22        2PY        -0.00826   0.17203   0.04513  -0.09789  -0.10948
  23        2PZ        -0.07286   0.10115   0.02607  -0.01906   0.10062
  24        3S         -0.05885   0.02917   0.04119  -0.02392   0.02761
  25        3PX         0.13409   0.00159   0.03573   0.06496   0.07171
  26        3PY        -0.03970   0.14397   0.01527  -0.12056  -0.12958
  27        3PZ        -0.07756   0.10869   0.02113  -0.04213   0.11284
  28 4   C  1S          0.00234   0.01559   0.00374  -0.00473   0.00009
  29        2S         -0.00237  -0.01724  -0.00418   0.00316  -0.00047
  30        2PX        -0.02332  -0.10259  -0.09391   0.00797   0.01846
  31        2PY        -0.00509   0.06950   0.15010   0.10558   0.03938
  32        2PZ         0.01860   0.05120  -0.08199   0.16699  -0.02784
  33        3S         -0.02148  -0.03740  -0.01906   0.03263   0.02025
  34        3PX        -0.00995  -0.08569  -0.04164  -0.01201   0.01081
  35        3PY        -0.01445   0.04546   0.17878   0.12660   0.05017
  36        3PZ         0.02611   0.05582  -0.08121   0.17783  -0.03574
  37 5   C  1S         -0.00971   0.00403   0.00170  -0.00821   0.02759
  38        2S          0.00222  -0.00251  -0.00378   0.00822  -0.02755
  39        2PX        -0.16277  -0.06261  -0.03101  -0.03062   0.03135
  40        2PY        -0.03933  -0.11899  -0.03024   0.04424  -0.12207
  41        2PZ         0.07078  -0.11850   0.06109   0.11554   0.03221
  42        3S          0.07467  -0.01783   0.00340   0.04127  -0.12674
  43        3PX        -0.12350  -0.07072  -0.03112   0.01025   0.03857
  44        3PY        -0.02986  -0.15084  -0.02364   0.06568  -0.13037
  45        3PZ         0.05437  -0.13077   0.05561   0.13765   0.03971
  46 6   C  1S          0.00682   0.00721  -0.01334   0.00862   0.00873
  47        2S         -0.00710  -0.00827   0.01607  -0.00955  -0.00914
  48        2PX         0.00126   0.03409   0.04789  -0.09378  -0.01225
  49        2PY         0.07914   0.10078  -0.19976   0.06469  -0.04931
  50        2PZ        -0.01165   0.06626   0.10770   0.18677  -0.09543
  51        3S         -0.01869  -0.02123   0.01728  -0.03644  -0.03085
  52        3PX         0.01765  -0.00524   0.11877  -0.08693  -0.01499
  53        3PY         0.07407   0.07100  -0.19506   0.07688  -0.05808
  54        3PZ        -0.00501   0.07034   0.11817   0.19575  -0.09563
  55 7   C  1S          0.00218   0.00883   0.01834  -0.00306   0.00493
  56        2S         -0.00310  -0.00709  -0.01792   0.00680  -0.00425
  57        2PX         0.28021  -0.08186   0.06323  -0.02236  -0.05068
  58        2PY         0.10077   0.13011  -0.14408  -0.06491   0.03006
  59        2PZ        -0.00632   0.02778   0.06312  -0.14792   0.00432
  60        3S         -0.00143  -0.04404  -0.03922  -0.02201  -0.03256
  61        3PX         0.27514  -0.02666   0.02629  -0.05548  -0.02595
  62        3PY         0.14908   0.10925  -0.11432  -0.06862   0.00957
  63        3PZ         0.00203   0.02135   0.05744  -0.15057  -0.01120
  64 8   C  1S          0.00457  -0.00796  -0.01431  -0.00595  -0.01302
  65        2S         -0.00356   0.00499   0.01689   0.00736   0.01083
  66        2PX        -0.13018   0.02483   0.01070   0.02149   0.07314
  67        2PY        -0.00705  -0.05864   0.20554   0.04920  -0.08661
  68        2PZ        -0.00460   0.12999  -0.06941   0.12331  -0.14887
  69        3S         -0.00236   0.03144   0.05603   0.01310   0.05439
  70        3PX        -0.13781   0.02847  -0.03776   0.02262   0.08297
  71        3PY         0.01615  -0.08216   0.20658   0.06433  -0.11771
  72        3PZ        -0.01528   0.12969  -0.07712   0.13651  -0.15449
  73 9   H  1S         -0.00446   0.09450   0.06156  -0.08276  -0.01272
  74        2S         -0.00959   0.08244   0.06313  -0.09003  -0.01814
  75 10  H  1S         -0.03141  -0.10300  -0.09694  -0.00550  -0.04286
  76        2S         -0.02489  -0.09778  -0.09009  -0.01127  -0.04749
  77 11  H  1S          0.09319  -0.08501   0.00447   0.07150   0.03399
  78        2S          0.08795  -0.07421   0.00037   0.06522   0.03941
  79 12  H  1S         -0.01504   0.00424   0.11931   0.04383   0.04814
  80        2S         -0.01112   0.01220   0.11116   0.04338   0.05544
  81 13  H  1S          0.05327   0.13810   0.00198  -0.06399   0.02487
  82        2S          0.05257   0.11553   0.00427  -0.06145   0.04129
  83 14  H  1S          0.03146   0.00792  -0.15980   0.01103   0.00377
  84        2S          0.02863   0.01150  -0.14900   0.01451   0.01127
  85 15  C  1S         -0.02107   0.00209  -0.00339   0.00717   0.00623
  86        2S          0.02646  -0.00395   0.00390  -0.00796  -0.00772
  87        2PX         0.12290  -0.03438   0.00017  -0.04698  -0.00554
  88        2PY        -0.09132   0.10174  -0.07153   0.03609  -0.05656
  89        2PZ         0.06601   0.01253   0.04245   0.08855  -0.15284
  90        3S          0.02655   0.00336  -0.01046  -0.01262  -0.01149
  91        3PX         0.06323  -0.02501  -0.01551  -0.03587   0.00885
  92        3PY        -0.09610   0.11863  -0.10649   0.04176  -0.05415
  93        3PZ         0.05531   0.00751   0.05532   0.09784  -0.17743
  94 16  H  1S         -0.10208   0.06840  -0.06340   0.00807   0.01415
  95        2S         -0.10428   0.06255  -0.06733   0.01136   0.01558
  96 17  H  1S          0.04461  -0.05760   0.06843   0.00649  -0.00224
  97        2S          0.02255  -0.04950   0.05958   0.00911   0.00379
  98 18  H  1S          0.14080   0.01795   0.00156  -0.10951   0.00512
  99        2S          0.13535   0.02258   0.00454  -0.10376   0.03624
 100 19  H  1S         -0.18868  -0.03548   0.05717   0.00483   0.00386
 101        2S         -0.17982  -0.03066   0.06885  -0.00273   0.00453
                          31        32        33        34        35
                           O         O         V         V         V
     Eigenvalues --    -0.34986  -0.28821   0.10501   0.14872   0.23923
   1 1   C  1S         -0.01583   0.00318  -0.00221   0.01638  -0.03178
   2        2S          0.01856  -0.00490  -0.00354  -0.01218   0.01318
   3        2PX         0.07469  -0.06943   0.07450  -0.09927  -0.04703
   4        2PY         0.02193  -0.01823   0.04401  -0.02948  -0.07717
   5        2PZ        -0.11388   0.14051  -0.12445   0.14268   0.14308
   6        3S          0.07020  -0.01528   0.07304  -0.19132   0.44253
   7        3PX         0.10991  -0.08310   0.21941  -0.22768  -0.12400
   8        3PY         0.04712  -0.04733  -0.04340  -0.07016  -0.15767
   9        3PZ        -0.12125   0.19033  -0.24283   0.27518   0.37079
  10 2   C  1S          0.00774   0.00941   0.01534   0.01177  -0.00211
  11        2S         -0.00636  -0.01311  -0.00913  -0.01267   0.00779
  12        2PX        -0.00564  -0.05357  -0.07954   0.03080   0.13075
  13        2PY         0.01518  -0.07856  -0.08350   0.00553   0.04153
  14        2PZ        -0.05438   0.15889   0.17018  -0.06083  -0.15035
  15        3S         -0.04288  -0.02815  -0.18828  -0.09090  -0.01646
  16        3PX        -0.01461  -0.09825  -0.14623   0.02557   0.38616
  17        3PY         0.01148  -0.09787  -0.24662   0.14149  -0.00353
  18        3PZ        -0.07838   0.19931   0.30179  -0.11352  -0.36775
  19 3   C  1S         -0.00001   0.00197  -0.00169   0.00080  -0.01195
  20        2S         -0.00093  -0.00349  -0.00396  -0.00061   0.01195
  21        2PX         0.09025   0.00317   0.01786  -0.06733   0.09533
  22        2PY        -0.14304   0.04830  -0.02045   0.12684  -0.14916
  23        2PZ         0.18158  -0.07467   0.03215  -0.14035   0.12451
  24        3S         -0.00492  -0.02476   0.05125   0.01009   0.11960
  25        3PX         0.10637   0.00070  -0.06342  -0.07076   0.34701
  26        3PY        -0.18350   0.05705  -0.07133   0.32631  -0.34077
  27        3PZ         0.21072  -0.12232   0.06238  -0.29506   0.24211
  28 4   C  1S          0.00348  -0.00063  -0.00125   0.00491   0.00101
  29        2S          0.00099  -0.00143   0.00674  -0.01143  -0.00216
  30        2PX         0.01502   0.05092   0.04009   0.03133  -0.00047
  31        2PY        -0.07717  -0.05309  -0.08061  -0.04940  -0.03327
  32        2PZ        -0.12967  -0.17173  -0.17811  -0.10571  -0.06066
  33        3S         -0.01631   0.00685  -0.02476  -0.00298   0.00859
  34        3PX         0.02125   0.08096   0.19608   0.00838  -0.11826
  35        3PY        -0.09502  -0.07874  -0.12669  -0.14510  -0.10450
  36        3PZ        -0.14600  -0.23044  -0.32033  -0.22350  -0.13391
  37 5   C  1S         -0.00852  -0.00104   0.00789  -0.01704  -0.04967
  38        2S          0.00822  -0.00719   0.00066   0.01653   0.03418
  39        2PX         0.06298  -0.09275  -0.08340   0.06330  -0.06449
  40        2PY        -0.14418   0.07781   0.08367  -0.12010   0.12044
  41        2PZ         0.19058  -0.05619  -0.06613   0.16599  -0.12003
  42        3S          0.03866   0.03989  -0.15322   0.14814   0.56954
  43        3PX         0.08736  -0.08196  -0.17650   0.17120  -0.21340
  44        3PY        -0.17847   0.13811   0.14734  -0.29734   0.26441
  45        3PZ         0.22318  -0.06059  -0.10267   0.32506  -0.26809
  46 6   C  1S         -0.00436   0.00414  -0.01039   0.01393   0.01516
  47        2S          0.00914  -0.00756   0.00406  -0.00802  -0.00799
  48        2PX         0.04493   0.01209  -0.02424  -0.02381  -0.01696
  49        2PY        -0.00163  -0.08064   0.08797  -0.00643  -0.02118
  50        2PZ        -0.07191  -0.16167   0.19327   0.01823  -0.03108
  51        3S          0.01980  -0.01188   0.15698  -0.16621  -0.25535
  52        3PX         0.01277   0.05378   0.00525  -0.03885  -0.02631
  53        3PY         0.00369  -0.10120   0.18216  -0.00778  -0.05470
  54        3PZ        -0.09169  -0.21051   0.37134   0.02224  -0.07151
  55 7   C  1S         -0.00174   0.00422   0.00020  -0.00152  -0.00166
  56        2S          0.00710  -0.00355  -0.00382   0.00147  -0.00013
  57        2PX        -0.01686   0.00058  -0.00384  -0.00320  -0.01141
  58        2PY         0.04612  -0.03610  -0.00828  -0.00535   0.00095
  59        2PZ        -0.06789  -0.02260  -0.00779   0.00204  -0.00696
  60        3S         -0.03124  -0.02579   0.01959   0.01875   0.02140
  61        3PX        -0.00287  -0.01820  -0.02810   0.02080  -0.21727
  62        3PY         0.02947  -0.02032   0.00706  -0.03619   0.16796
  63        3PZ        -0.06066  -0.03090  -0.04876   0.00952  -0.02195
  64 8   C  1S         -0.01880   0.00787   0.01111  -0.01877   0.02380
  65        2S          0.01758  -0.00709  -0.00916   0.01948  -0.01945
  66        2PX         0.03394  -0.03874  -0.03308   0.00614  -0.05972
  67        2PY        -0.02896   0.08230   0.06370   0.02079   0.11691
  68        2PZ         0.13760   0.11561   0.09537   0.16474   0.10598
  69        3S          0.09646  -0.04285  -0.07299   0.11894  -0.25972
  70        3PX         0.03243  -0.04947  -0.10392   0.04826  -0.13463
  71        3PY        -0.04318   0.12868   0.13101   0.08860   0.35199
  72        3PZ         0.17998   0.15021   0.15864   0.37139   0.19088
  73 9   H  1S          0.01952   0.02606   0.03014   0.02729  -0.00896
  74        2S          0.00676   0.04428   0.07841   0.16426  -0.20865
  75 10  H  1S         -0.04538   0.02097  -0.00297   0.04592  -0.04494
  76        2S         -0.05416   0.04469   0.02174   0.19948  -0.35562
  77 11  H  1S         -0.00498   0.03577   0.03573  -0.01167  -0.04057
  78        2S         -0.01166   0.04692   0.11132  -0.02500  -0.37041
  79 12  H  1S         -0.03001   0.02507  -0.02550   0.02835   0.03451
  80        2S         -0.03557   0.03939  -0.07445   0.13758   0.16189
  81 13  H  1S         -0.00117   0.00203   0.00759  -0.00458  -0.01878
  82        2S         -0.01124   0.00971   0.05403  -0.05597  -0.31732
  83 14  H  1S          0.01119  -0.00080  -0.00511   0.01446  -0.00466
  84        2S          0.00532   0.00662  -0.03028   0.09981   0.03526
  85 15  C  1S          0.00324  -0.00104  -0.00014   0.00136   0.00274
  86        2S         -0.00279   0.00045  -0.00042  -0.00119  -0.00289
  87        2PX        -0.03740  -0.02714   0.02683   0.02134   0.02157
  88        2PY         0.05699   0.08601  -0.06326  -0.08263  -0.01364
  89        2PZ         0.10359   0.20596  -0.15945  -0.15665  -0.09913
  90        3S         -0.00912   0.00429  -0.03087   0.03303  -0.03196
  91        3PX        -0.04427  -0.03336   0.05194   0.05898   0.08784
  92        3PY         0.08798   0.10232  -0.13467  -0.18587  -0.06664
  93        3PZ         0.11778   0.27341  -0.32030  -0.35523  -0.26301
  94 16  H  1S          0.02039  -0.00575  -0.00266   0.00407  -0.01071
  95        2S          0.02251  -0.00611  -0.00603   0.03968  -0.06155
  96 17  H  1S         -0.01145   0.00317   0.00062  -0.00116   0.01097
  97        2S         -0.01442   0.00460   0.02009  -0.05048   0.13213
  98 18  H  1S         -0.05209  -0.02240  -0.00292  -0.05626   0.00240
  99        2S         -0.09054  -0.01754   0.03188  -0.18195   0.09192
 100 19  H  1S         -0.04912   0.01635   0.00967  -0.02561   0.01703
 101        2S         -0.07135   0.03598   0.01275  -0.09895   0.03028
                          36        37        38        39        40
                           V         V         V         V         V
     Eigenvalues --     0.24836   0.27553   0.29314   0.29538   0.32611
   1 1   C  1S          0.03325  -0.01178   0.01107  -0.02408  -0.03216
   2        2S         -0.03120   0.01280   0.01143  -0.00860   0.00801
   3        2PX        -0.03920   0.04938  -0.12322  -0.01169   0.01057
   4        2PY        -0.07472   0.04805  -0.08929   0.03814   0.04354
   5        2PZ        -0.02229  -0.01136  -0.01623   0.10109   0.09103
   6        3S         -0.31305   0.13721  -0.28609   0.41916   0.48893
   7        3PX        -0.15956   0.09113  -0.28881  -0.00131   0.08369
   8        3PY        -0.28980   0.19948  -0.33267   0.01809   0.13237
   9        3PZ        -0.14538   0.00300  -0.05985   0.35250   0.20512
  10 2   C  1S          0.03647  -0.00655   0.04362   0.00554  -0.02459
  11        2S         -0.02338   0.00826  -0.00886  -0.01996   0.00280
  12        2PX        -0.01389  -0.00840  -0.09809   0.07514   0.11892
  13        2PY         0.02054   0.03599   0.03449  -0.00946  -0.04279
  14        2PZ        -0.08048   0.04207  -0.10974  -0.04448   0.02949
  15        3S         -0.45353   0.11430  -0.65128   0.00808   0.41645
  16        3PX        -0.08306   0.01713  -0.35701   0.18232   0.37836
  17        3PY         0.06529   0.06768   0.10521  -0.03064  -0.19700
  18        3PZ        -0.22268   0.02912  -0.39573  -0.11757   0.08104
  19 3   C  1S          0.02293   0.03503   0.02708  -0.01178  -0.00157
  20        2S         -0.02056  -0.01002  -0.00676   0.01027   0.00774
  21        2PX        -0.00209  -0.02768  -0.02683  -0.01000   0.01515
  22        2PY        -0.03338   0.05396  -0.02785   0.01686  -0.00090
  23        2PZ         0.06890   0.08048   0.07735  -0.03213  -0.00371
  24        3S         -0.23354  -0.44244  -0.42157   0.09231  -0.11520
  25        3PX        -0.03276  -0.19766  -0.00236   0.02028   0.01438
  26        3PY        -0.03716   0.12989  -0.07975   0.05099   0.01462
  27        3PZ         0.22674   0.25404   0.27270  -0.15174  -0.11248
  28 4   C  1S          0.04034  -0.01885   0.00390  -0.04407   0.03040
  29        2S         -0.02246   0.01112  -0.01288   0.01044  -0.00891
  30        2PX        -0.02530  -0.01809  -0.01821   0.02324   0.03272
  31        2PY        -0.11050   0.09254   0.03475   0.05547  -0.08323
  32        2PZ        -0.00491   0.09582  -0.05426  -0.16625  -0.03697
  33        3S         -0.47605   0.21732   0.07414   0.68260  -0.47914
  34        3PX        -0.12840  -0.05550  -0.03451   0.02517   0.02508
  35        3PY        -0.35495   0.29241   0.04111   0.20846  -0.37931
  36        3PZ         0.05638   0.21301  -0.06545  -0.52737  -0.11528
  37 5   C  1S          0.02583   0.01688   0.01113   0.02767   0.04751
  38        2S         -0.01791   0.00539  -0.00041  -0.00962  -0.01865
  39        2PX         0.03100   0.00454   0.01656   0.08132   0.08033
  40        2PY         0.04858   0.12893   0.03190  -0.01320   0.04453
  41        2PZ         0.00198   0.06758  -0.01943   0.03635   0.00168
  42        3S         -0.31712  -0.33296  -0.11279  -0.34938  -0.61390
  43        3PX         0.09842   0.03010   0.11326   0.22321   0.35724
  44        3PY         0.16021   0.34710   0.11322  -0.04164   0.18233
  45        3PZ         0.04928   0.25230  -0.10787   0.17446   0.00387
  46 6   C  1S          0.04744   0.00320  -0.02804   0.00768   0.01209
  47        2S         -0.02913  -0.00516   0.00798  -0.01375   0.00216
  48        2PX         0.04055   0.03975  -0.10651  -0.06355   0.00936
  49        2PY        -0.04367  -0.01615   0.11216   0.13059   0.02553
  50        2PZ         0.09353  -0.15128  -0.02790   0.07583   0.08995
  51        3S         -0.54456   0.04217   0.36812   0.04559  -0.23161
  52        3PX         0.19043   0.06240  -0.34749  -0.35007   0.12521
  53        3PY        -0.20794  -0.13380   0.46678   0.25940   0.24197
  54        3PZ         0.28824  -0.39729  -0.18017   0.25332   0.21034
  55 7   C  1S          0.04277   0.00560  -0.04077   0.03323  -0.03095
  56        2S         -0.02648   0.00102   0.01643   0.00310   0.00950
  57        2PX         0.05486   0.07053  -0.03725   0.03291   0.08248
  58        2PY         0.04365   0.10824   0.02803   0.08676   0.02222
  59        2PZ        -0.03300   0.02660   0.01145  -0.10170   0.03103
  60        3S         -0.44266  -0.10253   0.46838  -0.58966   0.37557
  61        3PX         0.17721   0.24048  -0.09390   0.16685   0.42951
  62        3PY         0.24515   0.48088   0.03917   0.20682   0.00310
  63        3PZ        -0.23822   0.11865   0.04371  -0.45498   0.08453
  64 8   C  1S          0.01714   0.00429   0.00556  -0.01764   0.00305
  65        2S         -0.00383   0.00614  -0.01315   0.02312  -0.00740
  66        2PX        -0.00246  -0.02515  -0.00516   0.03067   0.06436
  67        2PY        -0.02568   0.09398   0.03398  -0.02202  -0.03245
  68        2PZ        -0.05370   0.14316  -0.04953  -0.13160  -0.05615
  69        3S         -0.35933  -0.16820   0.11590  -0.01326   0.15513
  70        3PX         0.07492  -0.10015   0.03561   0.07748   0.29072
  71        3PY        -0.02530   0.16157   0.09226  -0.19060  -0.03360
  72        3PZ        -0.11657   0.33242  -0.12881  -0.20193  -0.16375
  73 9   H  1S          0.03570  -0.02247   0.03100   0.00698   0.00429
  74        2S          0.64708  -0.34920   0.68055  -0.39273  -0.49990
  75 10  H  1S          0.01419  -0.00273   0.02611  -0.00103  -0.00173
  76        2S          0.44489  -0.05225   0.90852  -0.15814  -0.69549
  77 11  H  1S          0.00767   0.04213  -0.00615  -0.01972  -0.01189
  78        2S          0.30518   0.70366   0.36144  -0.18956  -0.10619
  79 12  H  1S          0.04467  -0.01964  -0.00153  -0.01321   0.01251
  80        2S          0.76917  -0.37009  -0.11289  -0.74470   0.51753
  81 13  H  1S          0.01525   0.04216   0.01262  -0.00474   0.02044
  82        2S          0.40765   0.74944   0.16934   0.32526   0.64555
  83 14  H  1S          0.03319  -0.00569  -0.01924  -0.02643   0.03911
  84        2S          0.72679  -0.10272  -0.88467  -0.42325   0.23324
  85 15  C  1S          0.02104   0.01037  -0.04916   0.04740  -0.09964
  86        2S         -0.00928  -0.00245   0.01627  -0.02293   0.04167
  87        2PX         0.07640   0.04737  -0.09619   0.02552  -0.07834
  88        2PY         0.02120   0.01914   0.06983   0.10915   0.00469
  89        2PZ         0.04020  -0.09906  -0.02981   0.01844   0.01352
  90        3S         -0.23978  -0.16594   0.66685  -0.54073   1.31442
  91        3PX         0.38146   0.18447  -0.41573   0.18415  -0.34130
  92        3PY         0.06313   0.09509   0.25557   0.48105   0.02008
  93        3PZ         0.14283  -0.32408  -0.11719   0.03590   0.06539
  94 16  H  1S          0.00490   0.00037  -0.01874   0.00898  -0.02548
  95        2S          0.34211  -0.05395  -0.86239   0.00649  -0.83169
  96 17  H  1S         -0.00053   0.00212  -0.00276   0.01204  -0.02195
  97        2S          0.30907   0.36918  -0.19398   0.79116  -0.79095
  98 18  H  1S          0.00119  -0.06162  -0.00047   0.03011  -0.03640
  99        2S          0.10780  -0.60076  -0.21158   0.40959  -0.59298
 100 19  H  1S          0.03861   0.02965   0.02170   0.00289   0.05588
 101        2S          0.66738   0.60290  -0.15392   0.69966   0.27441
                          41        42        43        44        45
                           V         V         V         V         V
     Eigenvalues --     0.33313   0.35118   0.36503   0.37217   0.37634
   1 1   C  1S         -0.02383   0.01051  -0.05980   0.05955  -0.06060
   2        2S         -0.00826   0.01616   0.04376  -0.01739   0.03073
   3        2PX         0.01570  -0.02653   0.05353  -0.03603   0.03885
   4        2PY         0.04213  -0.05908   0.00577  -0.06552   0.07642
   5        2PZ         0.06796   0.08619   0.03090  -0.05966   0.04136
   6        3S          0.39714  -0.10191   0.57155  -0.98381   0.72682
   7        3PX         0.12204  -0.05065   0.44355  -0.18303   0.43191
   8        3PY         0.12566  -0.26651   0.14835  -0.23080   0.52842
   9        3PZ         0.34970   0.16202   0.26697  -0.24640   0.24323
  10 2   C  1S          0.01881  -0.01020   0.10035  -0.02292   0.03372
  11        2S         -0.02659   0.02824  -0.03992  -0.00639  -0.02960
  12        2PX         0.03860   0.00868  -0.10650   0.08719  -0.01183
  13        2PY         0.03193  -0.00003   0.07079   0.04463  -0.01566
  14        2PZ        -0.07114  -0.01263  -0.02943   0.02653   0.00587
  15        3S         -0.16818  -0.05982  -1.25248   0.54407  -0.20286
  16        3PX         0.11213   0.11716  -0.80588   0.24033  -0.30341
  17        3PY         0.05061  -0.04016   0.19536   0.15283  -0.04886
  18        3PZ        -0.27641  -0.11548  -0.22707   0.24036  -0.09652
  19 3   C  1S          0.03703   0.01637  -0.08505  -0.06402  -0.01637
  20        2S         -0.00308   0.00595   0.04113   0.03107   0.02730
  21        2PX        -0.09162   0.00254   0.10042   0.02729  -0.04529
  22        2PY         0.05486   0.00070  -0.01007  -0.07626   0.05789
  23        2PZ         0.12073   0.06384  -0.04180  -0.06701   0.01198
  24        3S         -0.66561  -0.40364   0.96981   0.84603  -0.05486
  25        3PX        -0.26461   0.05716   0.57642   0.19345  -0.07493
  26        3PY         0.21825   0.04411  -0.35038  -0.42052   0.00978
  27        3PZ         0.43712   0.18990  -0.33277  -0.48914  -0.04596
  28 4   C  1S          0.01124  -0.04999   0.00077  -0.00935   0.05787
  29        2S         -0.02125   0.03124  -0.01664  -0.00043  -0.01883
  30        2PX         0.03251   0.01706  -0.00825   0.02828  -0.07922
  31        2PY         0.02423  -0.00130   0.08180  -0.03910  -0.12366
  32        2PZ        -0.05156  -0.06444   0.00015   0.05060   0.04641
  33        3S         -0.03274   0.67666   0.19089   0.14529  -0.68430
  34        3PX         0.11059   0.04319   0.02011   0.14022  -0.28534
  35        3PY         0.00001   0.20750   0.11447  -0.17341  -0.75951
  36        3PZ        -0.14748  -0.28269  -0.02471   0.27176   0.17666
  37 5   C  1S          0.00635   0.02312   0.03022   0.08027   0.02741
  38        2S         -0.00045  -0.00037  -0.03155  -0.02682  -0.00302
  39        2PX         0.03335   0.04429  -0.03111   0.03719   0.02159
  40        2PY         0.09936   0.04548   0.03266   0.10669   0.00414
  41        2PZ         0.04870  -0.02003   0.00946   0.07064   0.04922
  42        3S         -0.17657  -0.28662  -0.12649  -1.12108  -0.35079
  43        3PX         0.11999   0.31153  -0.10899   0.22941   0.14227
  44        3PY         0.37000   0.21018   0.35004   0.62745   0.14957
  45        3PZ         0.19660  -0.23946   0.19963   0.50076   0.18256
  46 6   C  1S         -0.03914   0.01638   0.00776  -0.04591  -0.01628
  47        2S          0.01829   0.00091   0.00687   0.01595   0.02555
  48        2PX        -0.04798  -0.03024   0.02293  -0.07040   0.03402
  49        2PY        -0.03741  -0.02123  -0.02467  -0.01538   0.00412
[...]
  91        3PX         0.09062
  92        3PY         0.00000   0.24908
  93        3PZ         0.00000   0.00000   0.30803
  94 16  H  1S          0.01994   0.04919   0.01399   0.18035
  95        2S          0.02002   0.04986   0.01401   0.08810   0.11351
  96 17  H  1S          0.01252   0.06277   0.00777  -0.00015  -0.00425
  97        2S          0.01264   0.06298   0.00757  -0.00415  -0.01270
  98 18  H  1S          0.00007   0.00003  -0.00010  -0.00000  -0.00000
  99        2S          0.00140   0.00047  -0.00154  -0.00000  -0.00006
 100 19  H  1S         -0.00003   0.00006  -0.00008   0.00000   0.00001
 101        2S         -0.00013   0.00087   0.00034   0.00000   0.00009
                          96        97        98        99       100
  96 17  H  1S          0.18035
  97        2S          0.08788   0.11262
  98 18  H  1S          0.00000  -0.00000   0.16829
  99        2S          0.00001   0.00007   0.08701   0.12857
 100 19  H  1S         -0.00000   0.00008  -0.00013  -0.00351   0.17279
 101        2S          0.00009   0.00145  -0.00356  -0.00879   0.09207
                         101
 101        2S          0.13358
     Gross orbital populations:
                           1
   1 1   C  1S          1.98795
   2        2S          0.39638
   3        2PX         0.54082
   4        2PY         0.60024
   5        2PZ         0.45604
   6        3S          0.90047
   7        3PX         0.42317
   8        3PY         0.36795
   9        3PZ         0.56007
  10 2   C  1S          1.98802
  11        2S          0.39545
  12        2PX         0.53910
  13        2PY         0.60571
  14        2PZ         0.45142
  15        3S          0.90871
  16        3PX         0.53537
  17        3PY         0.29245
  18        3PZ         0.52466
  19 3   C  1S          1.98794
  20        2S          0.39409
  21        2PX         0.59880
  22        2PY         0.51726
  23        2PZ         0.48935
  24        3S          0.90272
  25        3PX         0.34413
  26        3PY         0.45976
  27        3PZ         0.54383
  28 4   C  1S          1.98783
  29        2S          0.39722
  30        2PX         0.62003
  31        2PY         0.54166
  32        2PZ         0.43764
  33        3S          0.88565
  34        3PX         0.26967
  35        3PY         0.53016
  36        3PZ         0.56317
  37 5   C  1S          1.98816
  38        2S          0.39288
  39        2PX         0.59427
  40        2PY         0.49761
  41        2PZ         0.48446
  42        3S          0.90553
  43        3PX         0.28583
  44        3PY         0.53742
  45        3PZ         0.48230
  46 6   C  1S          1.98801
  47        2S          0.39896
  48        2PX         0.61237
  49        2PY         0.54583
  50        2PZ         0.43281
  51        3S          0.88126
  52        3PX         0.35352
  53        3PY         0.40350
  54        3PZ         0.56477
  55 7   C  1S          1.98972
  56        2S          0.34258
  57        2PX         0.55020
  58        2PY         0.53580
  59        2PZ         0.53826
  60        3S          1.19985
  61        3PX         0.45159
  62        3PY         0.43297
  63        3PZ         0.47798
  64 8   C  1S          1.98859
  65        2S          0.39489
  66        2PX         0.62409
  67        2PY         0.54684
  68        2PZ         0.42910
  69        3S          0.87468
  70        3PX         0.30947
  71        3PY         0.35522
  72        3PZ         0.52413
  73 9   H  1S          0.46169
  74        2S          0.30992
  75 10  H  1S          0.46189
  76        2S          0.30844
  77 11  H  1S          0.46192
  78        2S          0.30782
  79 12  H  1S          0.46079
  80        2S          0.31100
  81 13  H  1S          0.46440
  82        2S          0.30378
  83 14  H  1S          0.46261
  84        2S          0.31113
  85 15  C  1S          1.98715
  86        2S          0.39165
  87        2PX         0.60222
  88        2PY         0.52934
  89        2PZ         0.43693
  90        3S          0.94842
  91        3PX         0.29702
  92        3PY         0.57351
  93        3PZ         0.62335
  94 16  H  1S          0.46592
  95        2S          0.33087
  96 17  H  1S          0.46586
  97        2S          0.32990
  98 18  H  1S          0.44423
  99        2S          0.30768
 100 19  H  1S          0.45294
 101        2S          0.32727
          Condensed to atoms (all electrons):
               1          2          3          4          5          6
     1  C    5.201687   0.563195  -0.096560   0.330745   0.004568  -0.079653
     2  C    0.563195   5.212711   0.341958  -0.085377  -0.101765   0.001430
     3  C   -0.096560   0.341958   5.226811  -0.003411   0.540169   0.001731
     4  C    0.330745  -0.085377  -0.003411   5.185086   0.001383   0.562815
     5  C    0.004568  -0.101765   0.540169   0.001383   5.304798   0.001747
     6  C   -0.079653   0.001430   0.001731   0.562815   0.001747   5.149043
     7  C   -0.007392  -0.011588  -0.095700   0.000196   0.280479  -0.066395
     8  C    0.001772   0.001259   0.003275  -0.076208  -0.133542   0.318406
     9  H    0.396175  -0.040136   0.002506  -0.045519  -0.000057   0.001746
    10  H   -0.039296   0.394378  -0.043265   0.002277   0.001632  -0.000004
    11  H    0.001303  -0.039489   0.394520   0.000069  -0.033587   0.000018
    12  H   -0.049471   0.001470   0.000078   0.399138   0.000015  -0.041595
    13  H   -0.000008   0.002416  -0.035552  -0.000001   0.396864   0.000214
    14  H    0.002225  -0.000055  -0.000020  -0.038139   0.000047   0.403621
    15  C    0.000097  -0.000005   0.000119   0.000875   0.000350  -0.078045
    16  H    0.000001   0.000000  -0.000000   0.000163  -0.000087   0.001485
    17  H    0.000001   0.000001   0.000001  -0.000049   0.000098   0.002390
    18  H    0.003563   0.000276  -0.001305  -0.000920  -0.049998  -0.000598
    19  H    0.000146   0.000202   0.002512  -0.000114  -0.044628   0.002665
               7          8          9         10         11         12
     1  C   -0.007392   0.001772   0.396175  -0.039296   0.001303  -0.049471
     2  C   -0.011588   0.001259  -0.040136   0.394378  -0.039489   0.001470
     3  C   -0.095700   0.003275   0.002506  -0.043265   0.394520   0.000078
     4  C    0.000196  -0.076208  -0.045519   0.002277   0.000069   0.399138
     5  C    0.280479  -0.133542  -0.000057   0.001632  -0.033587   0.000015
     6  C   -0.066395   0.318406   0.001746  -0.000004   0.000018  -0.041595
     7  C    5.485773   0.238585   0.000041   0.000099   0.002059  -0.000008
     8  C    0.238585   5.417618  -0.000051  -0.000052  -0.000078   0.002352
     9  H    0.000041  -0.000051   0.459907  -0.001965  -0.000040  -0.001072
    10  H    0.000099  -0.000052  -0.001965   0.456503  -0.000033  -0.000047
    11  H    0.002059  -0.000078  -0.000040  -0.000033   0.446292   0.000006
    12  H   -0.000008   0.002352  -0.001072  -0.000047   0.000006   0.464338
    13  H   -0.037990   0.001112   0.000001  -0.000044  -0.001356   0.000000
    14  H    0.001897  -0.048597  -0.000049   0.000000   0.000000  -0.003364
    15  C   -0.065038   0.535917   0.000001   0.000000  -0.000001  -0.000064
    16  H    0.002395  -0.057556  -0.000000  -0.000000  -0.000000  -0.000004
    17  H   -0.002188  -0.052669  -0.000000   0.000000   0.000000   0.000000
    18  H    0.396467  -0.053648   0.000126   0.000136   0.000094   0.000023
    19  H    0.397269  -0.050878   0.000001   0.000006  -0.000034   0.000001
              13         14         15         16         17         18
     1  C   -0.000008   0.002225   0.000097   0.000001   0.000001   0.003563
     2  C    0.002416  -0.000055  -0.000005   0.000000   0.000001   0.000276
     3  C   -0.035552  -0.000020   0.000119  -0.000000   0.000001  -0.001305
     4  C   -0.000001  -0.038139   0.000875   0.000163  -0.000049  -0.000920
     5  C    0.396864   0.000047   0.000350  -0.000087   0.000098  -0.049998
     6  C    0.000214   0.403621  -0.078045   0.001485   0.002390  -0.000598
     7  C   -0.037990   0.001897  -0.065038   0.002395  -0.002188   0.396467
     8  C    0.001112  -0.048597   0.535917  -0.057556  -0.052669  -0.053648
     9  H    0.000001  -0.000049   0.000001  -0.000000  -0.000000   0.000126
    10  H   -0.000044   0.000000   0.000000  -0.000000   0.000000   0.000136
    11  H   -0.001356   0.000000  -0.000001  -0.000000   0.000000   0.000094
    12  H    0.000000  -0.003364  -0.000064  -0.000004   0.000000   0.000023
    13  H    0.442645   0.000002   0.000188  -0.000001   0.000034   0.001811
    14  H    0.000002   0.453147   0.001109   0.001851   0.000061   0.000043
    15  C    0.000188   0.001109   5.195534   0.399678   0.398900   0.000957
    16  H   -0.000001   0.001851   0.399678   0.470069  -0.021242  -0.000061
    17  H    0.000034   0.000061   0.398900  -0.021242   0.468730   0.000075
    18  H    0.001811   0.000043   0.000957  -0.000061   0.000075   0.470867
    19  H   -0.002154  -0.000038  -0.000979   0.000099   0.001619  -0.015999
              19
     1  C    0.000146
     2  C    0.000202
     3  C    0.002512
     4  C   -0.000114
     5  C   -0.044628
     6  C    0.002665
     7  C    0.397269
     8  C   -0.050878
     9  H    0.000001
    10  H    0.000006
    11  H   -0.000034
    12  H    0.000001
    13  H   -0.002154
    14  H   -0.000038
    15  C   -0.000979
    16  H    0.000099
    17  H    0.001619
    18  H   -0.015999
    19  H    0.490520
 Mulliken charges:
               1
     1  C   -0.233098
     2  C   -0.240880
     3  C   -0.237865
     4  C   -0.233009
     5  C   -0.168486
     6  C   -0.181021
     7  C   -0.518958
     8  C   -0.047017
     9  H    0.228387
    10  H    0.229673
    11  H    0.230257
    12  H    0.228204
    13  H    0.231820
    14  H    0.226259
    15  C   -0.389592
    16  H    0.203210
    17  H    0.204240
    18  H    0.248090
    19  H    0.219787
 Sum of Mulliken charges =  -0.00000
 Mulliken charges with hydrogens summed into heavy atoms:
               1
     1  C   -0.004711
     2  C   -0.011207
     3  C   -0.007608
     4  C   -0.004805
     5  C    0.063334
     6  C    0.045238
     7  C   -0.051082
     8  C   -0.047017
    15  C    0.017858
 Electronic spatial extent (au):  <R**2>=           1129.6700
 Charge=              0.0000 electrons
 Dipole moment (field-independent basis, Debye):
    X=              0.2142    Y=             -0.1221    Z=              0.0962  Tot=              0.2647
 Quadrupole moment (field-independent basis, Debye-Ang):
   XX=            -51.2840   YY=            -51.4971   ZZ=            -58.0693
   XY=              0.9844   XZ=              1.3660   YZ=             -0.1495
 Traceless Quadrupole moment (field-independent basis, Debye-Ang):
   XX=              2.3328   YY=              2.1197   ZZ=             -4.4525
   XY=              0.9844   XZ=              1.3660   YZ=             -0.1495
 Octapole moment (field-independent basis, Debye-Ang**2):
  XXX=              0.4924  YYY=              4.6523  ZZZ=              1.4843  XYY=             -1.9344
  XXY=             -1.8754  XXZ=              0.1455  XZZ=              2.8663  YZZ=             -2.3843
  YYZ=             -5.9993  XYZ=              7.6880
 Hexadecapole moment (field-independent basis, Debye-Ang**3):
 XXXX=           -859.1414 YYYY=           -511.3826 ZZZZ=           -138.2426 XXXY=             -7.5329
 XXXZ=             19.1266 YYYX=             17.9944 YYYZ=             -0.1096 ZZZX=             -0.4033
 ZZZY=              2.1525 XXYY=           -226.0564 XXZZ=           -180.6065 YYZZ=           -107.8276
 XXYZ=             -0.9874 YYXZ=              1.1623 ZZXY=             -1.4481
 N-N= 4.063801156511D+02 E-N=-1.613643104049D+03  KE= 3.436182629544D+02
 Orbital energies and kinetic energies (alpha):
                                 1                 2
   1         O               -11.189051         15.876304
   2         O               -11.184415         15.873818
   3         O               -11.183806         15.875855
   4         O               -11.183109         15.873284
   5         O               -11.182675         15.875352
   6         O               -11.180772         15.874791
   7         O               -11.174613         15.873892
   8         O               -11.173655         15.882208
   9         O               -11.165918         15.871968
  10         O                -1.139590          1.439338
  11         O                -1.080083          1.541676
  12         O                -1.060684          1.548020
  13         O                -0.974923          1.581433
  14         O                -0.933223          1.476299
  15         O                -0.857065          1.459777
  16         O                -0.777286          1.375817
  17         O                -0.745858          1.353644
  18         O                -0.685357          0.946996
  19         O                -0.660011          1.099635
  20         O                -0.637152          1.192992
  21         O                -0.620351          1.235737
  22         O                -0.613001          1.077906
  23         O                -0.571299          1.141630
  24         O                -0.556807          1.174443
  25         O                -0.531237          1.229133
  26         O                -0.495090          1.217564
  27         O                -0.490928          1.216210
  28         O                -0.474150          1.279159
  29         O                -0.427980          1.092213
  30         O                -0.397599          1.056954
  31         O                -0.349863          1.082467
  32         O                -0.288213          1.112618
  33         V                 0.105009          1.189349
  34         V                 0.148719          1.182465
  35         V                 0.239231          1.286589
  36         V                 0.248364          0.929890
  37         V                 0.275532          1.050357
  38         V                 0.293145          1.003038
  39         V                 0.295380          1.111370
  40         V                 0.326108          1.114547
  41         V                 0.333133          1.052600
  42         V                 0.351185          1.186346
  43         V                 0.365033          1.197337
  44         V                 0.372170          1.189160
  45         V                 0.376336          1.153648
  46         V                 0.395865          1.257683
  47         V                 0.435602          1.648873
  48         V                 0.471037          1.842929
  49         V                 0.539377          1.612668
  50         V                 0.578741          1.932736
  51         V                 0.600361          1.648024
  52         V                 0.615267          1.610228
  53         V                 0.648498          1.625208
  54         V                 0.700134          2.250634
  55         V                 0.752761          1.745183
  56         V                 0.840620          2.098447
  57         V                 0.922189          2.105556
  58         V                 0.938657          2.478120
  59         V                 0.945005          2.494969
  60         V                 0.971759          2.704998
  61         V                 0.985691          2.647224
  62         V                 0.999873          2.687574
  63         V                 1.030431          2.558206
  64         V                 1.049555          2.697121
  65         V                 1.074070          2.712583
  66         V                 1.085891          2.765409
  67         V                 1.100706          2.645894
  68         V                 1.104101          2.769450
  69         V                 1.110257          2.691521
  70         V                 1.123590          2.629339
  71         V                 1.139276          2.856358
  72         V                 1.157154          2.948274
  73         V                 1.169596          2.845659
  74         V                 1.203984          2.765081
  75         V                 1.237105          2.873334
  76         V                 1.273134          3.087991
  77         V                 1.294182          3.211574
  78         V                 1.306041          3.124986
  79         V                 1.309344          3.194028
  80         V                 1.340309          3.125615
  81         V                 1.375995          3.178654
  82         V                 1.386332          3.270842
  83         V                 1.409827          2.763244
  84         V                 1.412762          3.003510
  85         V                 1.431726          3.198330
  86         V                 1.458357          3.366266
  87         V                 1.575016          3.014606
  88         V                 1.613154          2.881245
  89         V                 1.665121          2.871570
  90         V                 1.680697          2.839396
  91         V                 1.704436          2.860329
  92         V                 1.715417          2.753728
  93         V                 1.753160          3.119225
  94         V                 1.783881          3.046318
  95         V                 1.871124          3.133280
  96         V                 1.940728          3.250645
  97         V                 2.034560          3.279011
  98         V                 2.181114          3.451905
  99         V                 2.314886          3.402178
 100         V                 2.369163          3.570992
 101         V                 2.418487          3.477570
 Total kinetic energy from orbitals= 3.436182629544D+02
 1\1\GINC-IISERK51\SP\RHF\3-21G*\C9H10\GAUSSIAN\12-Jun-2025\0\\# hf/3-2
 1g* pop=full geom=connectivity\\Title Card Required\\0,1\C,0,1.643182,
 1.097872,0.358766\C,0,2.127737,-0.138042,0.170825\C,0,1.495908,-1.2259
 88,-0.545959\C,0,0.460722,1.718137,-0.191933\C,0,0.243756,-1.640562,-0
 .317597\C,0,-0.811712,1.312102,-0.306629\C,0,-0.643933,-1.018733,0.698
 524\C,0,-1.461707,0.078689,0.10197\H,0,2.257222,1.807802,0.949901\H,0,
 3.11995,-0.391865,0.589965\H,0,2.134148,-1.736012,-1.287907\H,0,0.6833
 12,2.741985,-0.564408\H,0,-0.186282,-2.483908,-0.880045\H,0,-1.517354,
 2.034757,-0.768678\C,0,-2.788419,-0.067782,-0.049266\H,0,-3.42282,0.71
 4559,-0.484643\H,0,-3.315268,-0.980876,0.254581\H,0,-0.030607,-0.59436
 8,1.54211\H,0,-1.315511,-1.806234,1.136922\\Version=EM64L-G16RevB.01\S
 tate=1-A\HF=-344.6180685\RMSD=9.308e-09\Dipole=0.0842876,-0.0480427,0.
 0378286\Quadrupole=1.7343683,1.57595,-3.3103183,0.7318826,1.0155606,-0
 .1111767\PG=C01 [X(C9H10)]\\@


          EVOLUTION
 IN THE BEGINNING GOD MADE MAN.
 HE WORKED THE DIRT WITH HIS HANDS.
 THEN GOD DECIDED TO GIVE MAN SCIENCE,
 MAN SHOULD BE USEFUL (LIKE AN APPLIANCE.)
 BUT SOON MAN'S KNOWLEDGE GREW TOO GREAT,
 TO THE HEADING SCIENCE HE COULDN'T RELATE
 SO GOD SAID "LETS HAVE DIFFERENT FIELDS,
 WE'LL DIVIDE THEM UP, SEE WHAT IT YIELDS."
 ENTER PHYSICS, CHEMISTRY, BIO
 THEY SPRANG UP AROUND THE NILE.
 BUT CHEMISTRY SURPASSED THE REST
 FAR AND AWAY IT WAS THE BEST.
 EXPERIMENT WAS GOD'S DECREE
 EXPERIMENT DID CHEMISTS WITH LOTS OF GLEE
 BUT SOON THEIR TESTS BEGAN TO BOG,
 THEY FOUND THEMSELVES DEEP IN A FOG.
 "GIVE US SOME HELP" THEY CRIED TO GOD.
 GOD LOOKED AROUND, THEN GAVE THE NOD.
 ENTER EINSTEIN, HEISENBERG, BOHR,
 REACTION PATHS WERE CLEAR ONCE MORE.
 WITH THEORISTS GOD SEND DIRECTION
 AND THEN HE STOPPED, HE'D MADE PERFECTION.
          -- THOMAS A. HOLME, 1981
 Job cpu time:       0 days  0 hours  0 minutes  1.7 seconds.
 Elapsed time:       0 days  0 hours  0 minutes  1.7 seconds.
 File lengths (MBytes):  RWF=     10 Int=      0 D2E=      0 Chk=      2 Scr=      1
 Normal termination of Gaussian 16 at Thu Jun 12 23:38:25 2025.
