 Entering Gaussian System, Link 0=g16
 Input=/home/gaussian/Documents/program files/Aromaticity/AM1 HF3-21G*/cyclooctatetraene/sp/meth_cyclooctatetraene_sp.com
 Output=/home/gaussian/Documents/program files/Aromaticity/AM1 HF3-21G*/cyclooctatetraene/sp/meth_cyclooctatetraene_sp.log
 Initial command:
 /usr/local/g16/l1.exe "/home/gaussian/tmp/Gau-145492.inp" -scrdir="/home/gaussian/tmp/"
 Entering Link 1 = /usr/local/g16/l1.exe PID=    145495.
  
 Copyright (c) 1988-2017, Gaussian, Inc.  All Rights Reserved.
  
 This is part of the Gaussian(R) 16 program.  It is based on
 the Gaussian(R) 09 system (copyright 2009, Gaussian, Inc.),
 the Gaussian(R) 03 system (copyright 2003, Gaussian, Inc.),
 the Gaussian(R) 98 system (copyright 1998, Gaussian, Inc.),
 the Gaussian(R) 94 system (copyright 1995, Gaussian, Inc.),
 the Gaussian 92(TM) system (copyright 1992, Gaussian, Inc.),
 the Gaussian 90(TM) system (copyright 1990, Gaussian, Inc.),
 the Gaussian 88(TM) system (copyright 1988, Gaussian, Inc.),
 the Gaussian 86(TM) system (copyright 1986, Carnegie Mellon
 University), and the Gaussian 82(TM) system (copyright 1983,
 Carnegie Mellon University). Gaussian is a federally registered
 trademark of Gaussian, Inc.
  
 This software contains proprietary and confidential information,
 including trade secrets, belonging to Gaussian, Inc.
  
 This software is provided under written license and may be
 used, copied, transmitted, or stored only in accord with that
 written license.
  
 The following legend is applicable only to US Government
 contracts under FAR:
  
                    RESTRICTED RIGHTS LEGEND
  
 Use, reproduction and disclosure by the US Government is
 subject to restrictions as set forth in subparagraphs (a)
 and (c) of the Commercial Computer Software - Restricted
 Rights clause in FAR 52.227-19.
  
 Gaussian, Inc.
 340 Quinnipiac St., Bldg. 40, Wallingford CT 06492
  
  
 ---------------------------------------------------------------
 Warning -- This program may not be used in any manner that
 competes with the business of Gaussian, Inc. or will provide
 assistance to any competitor of Gaussian, Inc.  The licensee
 of this program is prohibited from giving any competitor of
 Gaussian, Inc. access to this program.  By using this program,
 the user acknowledges that Gaussian, Inc. is engaged in the
 business of creating and licensing software in the field of
 computational chemistry and represents and warrants to the
 licensee that it is not a competitor of Gaussian, Inc. and that
 it will not use this program in any manner prohibited above.
 ---------------------------------------------------------------
  

 Cite this work as:
 Gaussian 16, Revision B.01,
 M. J. Frisch, G. W. Trucks, H. B. Schlegel, G. E. Scuseria, 
 M. A. Robb, J. R. Cheeseman, G. Scalmani, V. Barone, 
 G. A. Petersson, H. Nakatsuji, X. Li, M. Caricato, A. V. Marenich, 
 J. Bloino, B. G. Janesko, R. Gomperts, B. Mennucci, H. P. Hratchian, 
 J. V. Ortiz, A. F. Izmaylov, J. L. Sonnenberg, D. Williams-Young, 
 F. Ding, F. Lipparini, F. Egidi, J. Goings, B. Peng, A. Petrone, 
 T. Henderson, D. Ranasinghe, V. G. Zakrzewski, J. Gao, N. Rega, 
 G. Zheng, W. Liang, M. Hada, M. Ehara, K. Toyota, R. Fukuda, 
 J. Hasegawa, M. Ishida, T. Nakajima, Y. Honda, O. Kitao, H. Nakai, 
 T. Vreven, K. Throssell, J. A. Montgomery, Jr., J. E. Peralta, 
 F. Ogliaro, M. J. Bearpark, J. J. Heyd, E. N. Brothers, K. N. Kudin, 
 V. N. Staroverov, T. A. Keith, R. Kobayashi, J. Normand, 
 K. Raghavachari, A. P. Rendell, J. C. Burant, S. S. Iyengar, 
 J. Tomasi, M. Cossi, J. M. Millam, M. Klene, C. Adamo, R. Cammi, 
 J. W. Ochterski, R. L. Martin, K. Morokuma, O. Farkas, 
 J. B. Foresman, and D. J. Fox, Gaussian, Inc., Wallingford CT, 2016.
 
 ******************************************
 Gaussian 16:  EM64L-G16RevB.01 20-Dec-2017
                12-Jun-2025 
 ******************************************
 %chk=meth_cyclooctatetraene_sp.chk
 --------------------------------------
 # hf/3-21g* pop=full geom=connectivity
 --------------------------------------
 1/38=1,57=2,172=1/1;
 2/12=2,17=6,18=5,40=1/2;
 3/5=5,7=1,11=9,25=1,30=1/1,2,3;
 4//1;
 5/5=2,38=5/2;
 6/7=3,28=1/1;
 99/5=1,9=1/99;
 -------------------
 Title Card Required
 -------------------
 Symbolic Z-matrix:
 Charge =  0 Multiplicity = 1
 C                    -1.30342  -1.33639   0.50609 
 C                    -1.95591  -0.17632   0.64463 
 C                    -1.80133   0.99531  -0.19893 
 C                    -0.32112  -1.64622  -0.51768 
 C                    -0.66052   1.65051  -0.44376 
 C                     0.81767  -0.98619  -0.75458 
 C                     0.64978   1.33985   0.09664 
 C                     1.31401   0.17899  -0.02833 
 H                    -1.52626  -2.1773    1.18816 
 H                    -2.71551  -0.06496   1.43999 
 H                    -2.74763   1.36254  -0.63734 
 H                    -0.56834  -2.53997  -1.12053 
 H                    -0.67724   2.55255  -1.08383 
 H                     1.50082  -1.34102  -1.54824 
 H                     1.12329   2.18495   0.6308 
 C                     2.67746   0.00741   0.54048 
 H                     2.68661  -0.85114   1.25747 
 H                     3.40975  -0.21152  -0.27638 
 H                     3.01482   0.92416   1.08253 
 
                          Input orientation:                          
 ---------------------------------------------------------------------
 Center     Atomic      Atomic             Coordinates (Angstroms)
 Number     Number       Type             X           Y           Z
 ---------------------------------------------------------------------
      1          6           0       -1.303423   -1.336388    0.506094
      2          6           0       -1.955906   -0.176322    0.644632
      3          6           0       -1.801333    0.995309   -0.198930
      4          6           0       -0.321119   -1.646221   -0.517680
      5          6           0       -0.660516    1.650513   -0.443755
      6          6           0        0.817668   -0.986191   -0.754583
      7          6           0        0.649777    1.339854    0.096637
      8          6           0        1.314008    0.178989   -0.028333
      9          1           0       -1.526261   -2.177302    1.188160
     10          1           0       -2.715510   -0.064957    1.439991
     11          1           0       -2.747634    1.362544   -0.637344
     12          1           0       -0.568342   -2.539973   -1.120531
     13          1           0       -0.677238    2.552550   -1.083829
     14          1           0        1.500821   -1.341021   -1.548244
     15          1           0        1.123291    2.184949    0.630804
     16          6           0        2.677458    0.007408    0.540479
     17          1           0        2.686611   -0.851136    1.257466
     18          1           0        3.409753   -0.211522   -0.276376
     19          1           0        3.014821    0.924158    1.082532
 ---------------------------------------------------------------------
                    Distance matrix (angstroms):
                    1          2          3          4          5
     1  C    0.000000
     2  C    1.338163   0.000000
     3  C    2.486319   1.451967   0.000000
     4  C    1.452250   2.486785   3.044719   0.000000
     5  C    3.199550   2.489969   1.338169   3.314983   0.000000
     6  C    2.492182   3.210359   3.330805   1.337385   3.038725
     7  C    3.338400   3.064094   2.492792   3.199479   1.451000
     8  C    3.071307   3.357300   3.225032   2.498898   2.497339
     9  H    1.105444   2.117531   3.473492   2.155065   4.250274
    10  H    2.117236   1.105439   2.155446   3.473612   3.273276
    11  H    3.267634   2.153695   1.105692   3.867165   2.115766
    12  H    2.152875   3.260058   3.855883   1.106048   4.245786
    13  H    4.247800   3.474091   2.114624   4.251708   1.106185
    14  H    3.476221   4.256077   4.264189   2.115343   3.852343
    15  H    4.278353   3.880367   3.264526   4.252435   2.149946
    16  C    4.201712   4.638175   4.645669   3.584083   3.848452
    17  H    4.089059   4.731163   5.066763   3.581863   4.511725
    18  H    4.908321   5.444244   5.349566   4.004497   4.479094
    19  H    4.908114   5.109886   4.984230   4.505111   4.045398
                    6          7          8          9         10
     6  C    0.000000
     7  C    2.482589   0.000000
     8  C    1.459944   1.343290   0.000000
     9  H    3.269098   4.277493   3.885755   0.000000
    10  H    4.260067   3.886290   4.295637   2.437157   0.000000
    11  H    4.271028   3.475866   4.274182   4.165900   2.520736
    12  H    2.114044   4.244805   3.482656   2.525706   4.158402
    13  H    3.855624   2.150605   3.273060   5.315475   4.168401
    14  H    1.105667   3.258374   2.157651   4.165393   5.323094
    15  H    3.474022   1.106226   2.120073   5.134200   4.522527
    16  C    2.474519   2.466556   1.487274   4.781600   5.467949
    17  H    2.749460   3.208840   2.144406   4.417217   5.462079
    18  H    2.747308   3.188005   2.146199   5.511206   6.362880
    19  H    3.442660   2.595809   2.163807   5.500149   5.826047
                   11         12         13         14         15
    11  H    0.000000
    12  H    4.495823   0.000000
    13  H    2.429404   5.093819   0.000000
    14  H    5.117458   2.429374   4.485479   0.000000
    15  H    4.155552   5.315419   2.513365   4.162120   0.000000
    16  C    5.714480   4.447845   4.513326   2.750545   2.676804
    17  H    6.166174   4.370556   5.327497   3.085141   3.471957
    18  H    6.365642   4.686099   4.999557   2.556841   3.434233
    19  H    6.029597   5.449105   4.579965   3.787376   2.317658
                   16         17         18         19
    16  C    0.000000
    17  H    1.118594   0.000000
    18  H    1.118677   1.812377   0.000000
    19  H    1.117169   1.813834   1.814489   0.000000
 Stoichiometry    C9H10
 Framework group  C1[X(C9H10)]
 Deg. of freedom    51
 Full point group                 C1      NOp   1
 Largest Abelian subgroup         C1      NOp   1
 Largest concise Abelian subgroup C1      NOp   1
                         Standard orientation:                         
 ---------------------------------------------------------------------
 Center     Atomic      Atomic             Coordinates (Angstroms)
 Number     Number       Type             X           Y           Z
 ---------------------------------------------------------------------
      1          6           0       -1.303423   -1.336388    0.506094
      2          6           0       -1.955906   -0.176322    0.644632
      3          6           0       -1.801333    0.995309   -0.198930
      4          6           0       -0.321119   -1.646221   -0.517680
      5          6           0       -0.660516    1.650513   -0.443755
      6          6           0        0.817668   -0.986191   -0.754583
      7          6           0        0.649777    1.339854    0.096637
      8          6           0        1.314008    0.178989   -0.028333
      9          1           0       -1.526261   -2.177302    1.188160
     10          1           0       -2.715510   -0.064957    1.439991
     11          1           0       -2.747634    1.362544   -0.637344
     12          1           0       -0.568342   -2.539973   -1.120531
     13          1           0       -0.677238    2.552550   -1.083829
     14          1           0        1.500821   -1.341021   -1.548244
     15          1           0        1.123291    2.184949    0.630804
     16          6           0        2.677458    0.007408    0.540479
     17          1           0        2.686611   -0.851136    1.257466
     18          1           0        3.409753   -0.211522   -0.276376
     19          1           0        3.014821    0.924158    1.082532
 ---------------------------------------------------------------------
 Rotational constants (GHZ):           2.5643528           1.5896776           1.1439162
 Standard basis: 3-21G* (6D, 7F)
 There are   101 symmetry adapted cartesian basis functions of A   symmetry.
 There are   101 symmetry adapted basis functions of A   symmetry.
   101 basis functions,   165 primitive gaussians,   101 cartesian basis functions
    32 alpha electrons       32 beta electrons
       nuclear repulsion energy       405.3306333187 Hartrees.
 NAtoms=   19 NActive=   19 NUniq=   19 SFac= 1.00D+00 NAtFMM=   60 NAOKFM=F Big=F
 Integral buffers will be    131072 words long.
 Raffenetti 1 integral format.
 Two-electron integral symmetry is turned on.
 One-electron integrals computed using PRISM.
 NBasis=   101 RedAO= T EigKep=  3.27D-03  NBF=   101
 NBsUse=   101 1.00D-06 EigRej= -1.00D+00 NBFU=   101
 ExpMin= 1.83D-01 ExpMax= 1.72D+02 ExpMxC= 1.72D+02 IAcc=3 IRadAn=         5 AccDes= 0.00D+00
 Harris functional with IExCor=  205 and IRadAn=       5 diagonalized for initial guess.
 HarFok:  IExCor=  205 AccDes= 0.00D+00 IRadAn=         5 IDoV= 1 UseB2=F ITyADJ=14
 ICtDFT=  3500011 ScaDFX=  1.000000  1.000000  1.000000  1.000000
 FoFCou: FMM=F IPFlag=           0 FMFlag=      100000 FMFlg1=           0
         NFxFlg=           0 DoJE=T BraDBF=F KetDBF=T FulRan=T
         wScrn=  0.000000 ICntrl=       500 IOpCl=  0 I1Cent=   200000004 NGrid=           0
         NMat0=    1 NMatS0=      1 NMatT0=    0 NMatD0=    1 NMtDS0=    0 NMtDT0=    0
 Petite list used in FoFCou.
 Keep R1 ints in memory in canonical form, NReq=14123393.
 Requested convergence on RMS density matrix=1.00D-08 within 128 cycles.
 Requested convergence on MAX density matrix=1.00D-06.
 Requested convergence on             energy=1.00D-06.
 No special actions if energy rises.
 SCF Done:  E(RHF) =  -344.618949650     A.U. after   14 cycles
            NFock= 14  Conv=0.20D-08     -V/T= 2.0029

 **********************************************************************

            Population analysis using the SCF Density.

 **********************************************************************

 Orbital symmetries:
       Occupied  (A) (A) (A) (A) (A) (A) (A) (A) (A) (A) (A) (A)
                 (A) (A) (A) (A) (A) (A) (A) (A) (A) (A) (A) (A)
                 (A) (A) (A) (A) (A) (A) (A) (A)
       Virtual   (A) (A) (A) (A) (A) (A) (A) (A) (A) (A) (A) (A)
                 (A) (A) (A) (A) (A) (A) (A) (A) (A) (A) (A) (A)
                 (A) (A) (A) (A) (A) (A) (A) (A) (A) (A) (A) (A)
                 (A) (A) (A) (A) (A) (A) (A) (A) (A) (A) (A) (A)
                 (A) (A) (A) (A) (A) (A) (A) (A) (A) (A) (A) (A)
                 (A) (A) (A) (A) (A) (A) (A) (A) (A)
 The electronic state is 1-A.
 Alpha  occ. eigenvalues --  -11.18458 -11.17993 -11.17898 -11.17878 -11.17841
 Alpha  occ. eigenvalues --  -11.17700 -11.17602 -11.17153 -11.16914  -1.13644
 Alpha  occ. eigenvalues --   -1.07535  -1.05606  -0.97485  -0.92429  -0.86779
 Alpha  occ. eigenvalues --   -0.77431  -0.75567  -0.67746  -0.63681  -0.62499
 Alpha  occ. eigenvalues --   -0.62203  -0.60917  -0.58939  -0.55686  -0.53795
 Alpha  occ. eigenvalues --   -0.50658  -0.49478  -0.46365  -0.41957  -0.36543
 Alpha  occ. eigenvalues --   -0.35703  -0.29725
 Alpha virt. eigenvalues --    0.11007   0.18702   0.19017   0.25874   0.27292
 Alpha virt. eigenvalues --    0.29552   0.30532   0.32524   0.32772   0.34988
 Alpha virt. eigenvalues --    0.36473   0.36718   0.38009   0.38626   0.42483
 Alpha virt. eigenvalues --    0.46292   0.56537   0.57058   0.63021   0.63122
 Alpha virt. eigenvalues --    0.66326   0.76797   0.79019   0.86866   0.91909
 Alpha virt. eigenvalues --    0.92799   0.96141   0.96669   0.98720   0.99068
 Alpha virt. eigenvalues --    1.01097   1.03537   1.04050   1.08359   1.09271
 Alpha virt. eigenvalues --    1.10026   1.10878   1.13509   1.16227   1.17600
 Alpha virt. eigenvalues --    1.18418   1.23031   1.23503   1.29189   1.30468
 Alpha virt. eigenvalues --    1.31377   1.32893   1.33285   1.36388   1.37124
 Alpha virt. eigenvalues --    1.38772   1.39940   1.41834   1.42203   1.44425
 Alpha virt. eigenvalues --    1.48472   1.58676   1.66483   1.67160   1.69718
 Alpha virt. eigenvalues --    1.75102   1.77456   1.81841   1.84056   2.05096
 Alpha virt. eigenvalues --    2.09961   2.28333   2.36150   2.38612
     Molecular Orbital Coefficients:
                           1         2         3         4         5
                           O         O         O         O         O
     Eigenvalues --   -11.18458 -11.17993 -11.17898 -11.17878 -11.17841
   1 1   C  1S         -0.02252  -0.08050  -0.30773  -0.09801   0.92709
   2        2S         -0.00341  -0.00952  -0.03257  -0.01422   0.09183
   3        2PX        -0.00055  -0.00087  -0.00072   0.00082   0.00012
   4        2PY        -0.00046   0.00030  -0.00066  -0.00208   0.00025
   5        2PZ         0.00012   0.00066   0.00096   0.00026  -0.00048
   6        3S          0.00744   0.02347   0.03128   0.04114  -0.07409
   7        3PX         0.00177   0.01524  -0.00180  -0.00075  -0.00296
   8        3PY         0.00237  -0.00200   0.00589   0.01860  -0.00821
   9        3PZ        -0.00302  -0.01220  -0.00416  -0.00772   0.00802
  10 2   C  1S          0.00465  -0.11390   0.24241   0.93113   0.16579
  11        2S          0.00094  -0.01171   0.02586   0.09382   0.01235
  12        2PX         0.00004  -0.00061   0.00068   0.00064  -0.00125
  13        2PY         0.00007   0.00050  -0.00039   0.00012   0.00172
  14        2PZ        -0.00024   0.00079  -0.00058  -0.00081   0.00060
  15        3S         -0.00390   0.00428  -0.02772  -0.08578   0.01435
  16        3PX        -0.00213  -0.00126  -0.00517  -0.01161   0.01016
  17        3PY         0.00048  -0.00588   0.00473   0.00012  -0.01158
  18        3PZ         0.00258   0.00152   0.00506   0.01309  -0.00570
  19 3   C  1S          0.00387  -0.03554   0.01060  -0.04929  -0.06903
  20        2S          0.00064  -0.00483   0.00149  -0.00686  -0.00768
  21        2PX         0.00018  -0.00062   0.00015   0.00003  -0.00012
  22        2PY        -0.00010   0.00046  -0.00012   0.00094   0.00110
  23        2PZ         0.00009   0.00014   0.00022  -0.00054  -0.00048
  24        3S          0.00147   0.00945  -0.00123   0.02403   0.00425
  25        3PX         0.00003   0.00467  -0.00357   0.00181  -0.00168
  26        3PY        -0.00119  -0.00232  -0.00368  -0.01708  -0.00043
  27        3PZ        -0.00024   0.00215   0.00029   0.00931   0.00159
  28 4   C  1S         -0.02960   0.97390   0.06603   0.08011   0.11079
  29        2S         -0.00373   0.09819   0.00273   0.00920   0.00788
  30        2PX        -0.00060  -0.00008  -0.00160   0.00111   0.00032
  31        2PY        -0.00072   0.00090  -0.00133   0.00020  -0.00071
  32        2PZ        -0.00052   0.00083  -0.00009  -0.00038  -0.00075
  33        3S          0.00299  -0.08805   0.01700  -0.02274   0.01707
  34        3PX         0.00602  -0.00235   0.01532  -0.00130  -0.00838
  35        3PY         0.00051  -0.01353   0.00980  -0.00919   0.00885
  36        3PZ        -0.00204  -0.01061  -0.00030  -0.00404   0.01081
  37 5   C  1S         -0.01437   0.01501  -0.08988  -0.04713  -0.02410
  38        2S         -0.00187   0.00224  -0.01050  -0.00472  -0.00241
  39        2PX        -0.00064   0.00010  -0.00001   0.00045  -0.00002
  40        2PY         0.00025  -0.00015   0.00099   0.00050   0.00013
  41        2PZ        -0.00024   0.00025  -0.00023  -0.00070   0.00006
  42        3S          0.00019  -0.00730   0.01394  -0.00306   0.00408
  43        3PX        -0.00013   0.00000   0.00010  -0.00661   0.00148
  44        3PY         0.00257   0.00373  -0.00449   0.00341  -0.00108
  45        3PZ         0.00077  -0.00296   0.00356  -0.00140   0.00035
  46 6   C  1S         -0.01419  -0.06709   0.89884  -0.29461   0.26239
  47        2S         -0.00265  -0.01147   0.09062  -0.02981   0.02527
  48        2PX        -0.00036   0.00201  -0.00042   0.00003   0.00090
  49        2PY        -0.00087   0.00055   0.00056  -0.00001   0.00034
  50        2PZ        -0.00028  -0.00095   0.00112  -0.00015  -0.00058
  51        3S          0.01405   0.03800  -0.07671   0.03129  -0.02129
  52        3PX         0.00622  -0.01635   0.00807  -0.00430  -0.00103
  53        3PY         0.01366  -0.00084  -0.00400   0.00390  -0.00724
  54        3PZ         0.00583   0.01103  -0.01071   0.00502  -0.00350
  55 7   C  1S         -0.00457   0.00650  -0.02031  -0.01352  -0.00352
  56        2S         -0.00478   0.00089  -0.00296  -0.00237  -0.00038
  57        2PX        -0.00074  -0.00018   0.00009   0.00052  -0.00021
  58        2PY         0.00192  -0.00019   0.00099   0.00024   0.00048
  59        2PZ         0.00041  -0.00011   0.00054  -0.00026  -0.00003
  60        3S          0.03019   0.00235   0.00044   0.00933  -0.00226
  61        3PX         0.00677  -0.00249   0.00661  -0.00628   0.00407
  62        3PY        -0.01629  -0.00027  -0.00238  -0.00355   0.00109
  63        3PZ        -0.00331  -0.00016   0.00026  -0.00320   0.00200
  64 8   C  1S          0.98646   0.02739   0.00516  -0.00875   0.02706
  65        2S          0.10037   0.00236  -0.00012   0.00002   0.00125
  66        2PX        -0.00001   0.00040   0.00028  -0.00044   0.00109
  67        2PY        -0.00004   0.00062   0.00071  -0.00028   0.00058
  68        2PZ        -0.00016   0.00029   0.00042  -0.00035   0.00002
  69        3S         -0.09153  -0.00726   0.01043  -0.00913   0.00679
  70        3PX         0.00340   0.00443  -0.01030   0.00963  -0.00896
  71        3PY        -0.00368   0.00373  -0.01294   0.00408  -0.00589
  72        3PZ         0.00155   0.00099  -0.00706   0.00512  -0.00482
  73 9   H  1S          0.00016  -0.00051   0.00023  -0.00005  -0.00138
  74        2S          0.00081   0.00225  -0.00186   0.00330   0.00866
  75 10  H  1S         -0.00021  -0.00010  -0.00028  -0.00125  -0.00038
  76        2S         -0.00092  -0.00039   0.00099   0.00737   0.00501
  77 11  H  1S         -0.00003   0.00034  -0.00034  -0.00044  -0.00014
  78        2S         -0.00005   0.00105  -0.00017   0.00307  -0.00054
  79 12  H  1S         -0.00015  -0.00125  -0.00002  -0.00008  -0.00085
  80        2S          0.00101   0.00776   0.00320  -0.00129   0.00519
  81 13  H  1S         -0.00012  -0.00023   0.00022  -0.00026   0.00001
  82        2S         -0.00044  -0.00115   0.00084  -0.00023   0.00004
  83 14  H  1S         -0.00080  -0.00007  -0.00116   0.00042  -0.00070
  84        2S          0.00171   0.00333   0.00724  -0.00217   0.00342
  85 15  H  1S         -0.00069   0.00001  -0.00014   0.00043  -0.00034
  86        2S          0.00174   0.00017   0.00020   0.00151  -0.00091
  87 16  C  1S         -0.00710   0.00210  -0.01946   0.00737  -0.00737
  88        2S         -0.00236   0.00040  -0.00387   0.00156  -0.00155
  89        2PX         0.00029   0.00001   0.00046  -0.00003  -0.00001
  90        2PY        -0.00047  -0.00015   0.00078  -0.00031   0.00015
  91        2PZ        -0.00007   0.00001   0.00048  -0.00009   0.00021
  92        3S          0.01644  -0.00139   0.00854  -0.00597   0.00587
  93        3PX        -0.00941   0.00008  -0.00373   0.00247  -0.00223
  94        3PY         0.00426  -0.00044  -0.00053   0.00012   0.00081
  95        3PZ        -0.00303   0.00026  -0.00296   0.00139  -0.00192
  96 17  H  1S         -0.00108   0.00006  -0.00102   0.00044  -0.00028
  97        2S          0.00250  -0.00016   0.00079  -0.00014   0.00052
  98 18  H  1S         -0.00102  -0.00010  -0.00046   0.00024  -0.00034
  99        2S          0.00201   0.00069  -0.00157   0.00054  -0.00054
 100 19  H  1S         -0.00095   0.00008  -0.00016   0.00012  -0.00021
 101        2S         -0.00177   0.00011   0.00104  -0.00027   0.00012
                           6         7         8         9        10
                           O         O         O         O         O
     Eigenvalues --   -11.17700 -11.17602 -11.17153 -11.16914  -1.13644
   1 1   C  1S         -0.01359   0.05995  -0.00212   0.00118  -0.07466
   2        2S         -0.00151   0.00492   0.00009  -0.00008   0.08362
   3        2PX        -0.00002   0.00030   0.00012   0.00003   0.00824
   4        2PY         0.00003  -0.00108  -0.00017  -0.00008   0.03198
   5        2PZ        -0.00010   0.00057  -0.00021   0.00003  -0.02087
   6        3S          0.00558  -0.00440  -0.00334   0.00142   0.14547
   7        3PX         0.00149  -0.00510  -0.00128   0.00109   0.00100
   8        3PY         0.00142   0.00214  -0.00207  -0.00051   0.00427
   9        3PZ        -0.00115   0.00233   0.00261  -0.00094  -0.00170
  10 2   C  1S          0.06838   0.05594   0.02242   0.00164  -0.07194
  11        2S          0.00659   0.00324   0.00077  -0.00003   0.08105
  12        2PX        -0.00023  -0.00036  -0.00076  -0.00011   0.02931
  13        2PY        -0.00076  -0.00074  -0.00028   0.00008  -0.00918
  14        2PZ         0.00040   0.00066   0.00020   0.00001  -0.02384
  15        3S         -0.01177   0.01621   0.00627   0.00159   0.13555
  16        3PX        -0.00413   0.00533   0.00351   0.00052   0.00071
  17        3PY        -0.00239   0.01325   0.00199   0.00007   0.00073
  18        3PZ         0.00275  -0.00944  -0.00427  -0.00037  -0.00051
  19 3   C  1S         -0.07559   0.97940   0.03187   0.00084  -0.07202
  20        2S         -0.01228   0.09761   0.00230   0.00009   0.08078
  21        2PX        -0.00225   0.00052  -0.00116  -0.00018   0.03660
  22        2PY        -0.00054  -0.00043  -0.00017  -0.00010  -0.00910
  23        2PZ        -0.00008   0.00050  -0.00039   0.00007   0.00986
  24        3S          0.03856  -0.08116  -0.00358  -0.00079   0.14018
  25        3PX         0.01940  -0.01122   0.00155  -0.00062   0.00277
  26        3PY         0.00061   0.00481   0.00591   0.00130  -0.00361
  27        3PZ         0.00333  -0.00610  -0.00184  -0.00097   0.00169
  28 4   C  1S         -0.00585   0.04583  -0.00218  -0.00094  -0.08129
  29        2S         -0.00044   0.00301  -0.00018  -0.00008   0.09167
  30        2PX        -0.00026   0.00031   0.00000  -0.00010   0.01841
  31        2PY        -0.00013  -0.00082   0.00009  -0.00012   0.03712
  32        2PZ         0.00016  -0.00013   0.00009   0.00030   0.01554
  33        3S         -0.00244   0.00428   0.00359   0.00093   0.15048
  34        3PX         0.00098  -0.00162  -0.00063   0.00190  -0.00371
  35        3PY        -0.00221   0.00395   0.00132  -0.00004  -0.00143
  36        3PZ        -0.00249   0.00378   0.00039  -0.00269   0.00280
  37 5   C  1S          0.97847   0.07152   0.02380   0.01345  -0.07583
  38        2S          0.09838   0.00260   0.00025   0.00028   0.08582
  39        2PX         0.00026   0.00162  -0.00080  -0.00037   0.00006
  40        2PY        -0.00076   0.00150   0.00042   0.00034  -0.03380
  41        2PZ         0.00068  -0.00079  -0.00037  -0.00020   0.02030
  42        3S         -0.08701   0.02402   0.01899   0.00285   0.13895
  43        3PX        -0.00128  -0.01063   0.01569   0.00265  -0.00355
  44        3PY         0.01301  -0.01277  -0.00775  -0.00212   0.00123
  45        3PZ        -0.01017   0.00723   0.00557   0.00179  -0.00156
  46 6   C  1S          0.07480  -0.00305   0.01625   0.02346  -0.09102
  47        2S          0.00621  -0.00017   0.00117   0.00027   0.10199
  48        2PX         0.00061   0.00032   0.00004  -0.00093  -0.02526
  49        2PY        -0.00058   0.00019  -0.00091  -0.00039   0.01617
  50        2PZ        -0.00002   0.00009  -0.00029  -0.00054   0.03090
  51        3S          0.00118  -0.00207  -0.00461   0.00466   0.17877
  52        3PX        -0.00154   0.00076   0.00272   0.00326  -0.00986
  53        3PY         0.00326  -0.00176  -0.00237   0.00497  -0.00044
  54        3PZ         0.00332  -0.00226  -0.00070   0.00275   0.00291
  55 7   C  1S         -0.02535  -0.03446   0.98425   0.05801  -0.08894
  56        2S         -0.00466  -0.00417   0.09879   0.00482   0.09910
  57        2PX         0.00100   0.00110  -0.00063  -0.00073  -0.00335
  58        2PY         0.00000  -0.00001  -0.00053   0.00040  -0.04440
  59        2PZ         0.00035   0.00026  -0.00057  -0.00017  -0.01561
  60        3S          0.02238   0.00078  -0.08769  -0.00489   0.18032
  61        3PX        -0.01735   0.00117   0.00713   0.00109  -0.00859
  62        3PY         0.00094   0.00162   0.01279  -0.00203  -0.00650
  63        3PZ        -0.00477  -0.00081   0.00858  -0.00064  -0.00514
  64 8   C  1S          0.01470  -0.00049   0.00379   0.00753  -0.10739
  65        2S          0.00122   0.00011  -0.00372  -0.00102   0.11676
  66        2PX         0.00098  -0.00009   0.00189  -0.00050  -0.02668
  67        2PY        -0.00062   0.00008  -0.00195  -0.00019   0.00838
  68        2PZ         0.00056  -0.00008   0.00018  -0.00039  -0.00695
  69        3S         -0.00533   0.00161   0.02786   0.01591   0.21973
  70        3PX        -0.00115  -0.00050  -0.02008   0.01500   0.01739
  71        3PY         0.00545  -0.00134   0.01447   0.00221  -0.00801
  72        3PZ        -0.00067   0.00009  -0.00396   0.00852   0.00251
  73 9   H  1S          0.00001  -0.00040  -0.00026  -0.00008   0.02680
  74        2S          0.00003   0.00195  -0.00092   0.00025  -0.00592
  75 10  H  1S         -0.00013  -0.00077   0.00014  -0.00005   0.02553
  76        2S         -0.00009   0.00404   0.00184   0.00026  -0.00683
  77 11  H  1S         -0.00014  -0.00136  -0.00036  -0.00017   0.02562
  78        2S          0.00340   0.00882   0.00145  -0.00026  -0.00611
  79 12  H  1S         -0.00025   0.00008  -0.00004  -0.00022   0.02902
  80        2S         -0.00083   0.00208   0.00002  -0.00023  -0.00796
  81 13  H  1S         -0.00128  -0.00029  -0.00069  -0.00001   0.02709
  82        2S          0.00814   0.00439   0.00382   0.00117  -0.00803
  83 14  H  1S          0.00013  -0.00025  -0.00012  -0.00037   0.03440
  84        2S          0.00223  -0.00069  -0.00032  -0.00005  -0.00447
  85 15  H  1S         -0.00070  -0.00011  -0.00141   0.00010   0.03291
  86        2S          0.00269  -0.00043   0.00808   0.00086  -0.00269
  87 16  C  1S         -0.01415   0.00019  -0.05901   0.98544  -0.04806
  88        2S         -0.00270   0.00004  -0.00737   0.10154   0.05164
  89        2PX         0.00024   0.00002   0.00021  -0.00014  -0.03214
  90        2PY        -0.00003   0.00004  -0.00019  -0.00020   0.00346
  91        2PZ         0.00006  -0.00001   0.00003  -0.00016  -0.01381
  92        3S          0.00571  -0.00015   0.01326  -0.08250   0.09051
  93        3PX        -0.00315   0.00008  -0.00400   0.00661   0.00869
  94        3PY        -0.00043   0.00012  -0.00092  -0.00074  -0.00082
  95        3PZ        -0.00099  -0.00000  -0.00223   0.00255   0.00511
  96 17  H  1S         -0.00044   0.00001  -0.00044   0.00058   0.02073
  97        2S         -0.00022   0.00004  -0.00081   0.01359  -0.00601
  98 18  H  1S         -0.00021  -0.00000  -0.00040   0.00055   0.02059
  99        2S         -0.00024   0.00004  -0.00096   0.01341  -0.00335
 100 19  H  1S         -0.00035   0.00002  -0.00017   0.00055   0.01958
 101        2S          0.00067  -0.00004  -0.00081   0.01317  -0.00253
                          11        12        13        14        15
                           O         O         O         O         O
     Eigenvalues --    -1.07535  -1.05606  -0.97485  -0.92429  -0.86779
   1 1   C  1S          0.09544   0.07719  -0.06211  -0.07898  -0.05866
   2        2S         -0.10490  -0.08374   0.06721   0.08193   0.05936
   3        2PX         0.02581  -0.03020  -0.06499  -0.01513   0.06582
   4        2PY        -0.05463   0.00637   0.06184   0.00721  -0.08477
   5        2PZ         0.00583   0.03086   0.03398   0.00926  -0.04524
   6        3S         -0.20388  -0.17308   0.15303   0.22084   0.17459
   7        3PX        -0.00144   0.00357  -0.01019  -0.00253   0.01735
   8        3PY         0.00056  -0.00526   0.00743   0.00493  -0.02137
   9        3PZ         0.00565   0.00492   0.00587  -0.00587  -0.02123
  10 2   C  1S          0.11658   0.00292  -0.09629  -0.00690   0.08307
  11        2S         -0.12797  -0.00377   0.10249   0.00847  -0.08499
  12        2PX        -0.03131  -0.01375   0.01255   0.02556   0.02742
  13        2PY         0.01898   0.06614  -0.04952  -0.10327  -0.04985
  14        2PZ         0.02926  -0.01176   0.00211   0.02810   0.00098
  15        3S         -0.25274  -0.00354   0.24194   0.01862  -0.24964
  16        3PX        -0.00315   0.00150   0.00138   0.00475   0.00455
  17        3PY         0.00239  -0.00328  -0.00947  -0.01955  -0.01469
  18        3PZ         0.00706  -0.00154  -0.00517   0.01142   0.01010
  19 3   C  1S          0.08778  -0.09213   0.01254   0.10693   0.02255
  20        2S         -0.09636   0.10083  -0.01436  -0.11143  -0.02184
  21        2PX        -0.01394   0.05840  -0.05074  -0.00716   0.06786
  22        2PY         0.02879   0.03619  -0.06283  -0.02452   0.08247
  23        2PZ        -0.02142  -0.00708   0.03393   0.00931  -0.05087
  24        3S         -0.18761   0.20099  -0.02953  -0.29475  -0.06882
  25        3PX        -0.00475   0.00205  -0.00268  -0.00820   0.01439
  26        3PY        -0.00402  -0.00086  -0.00836  -0.00482   0.02389
  27        3PZ        -0.00168   0.00399   0.00844  -0.00500  -0.01996
  28 4   C  1S          0.02275   0.11989   0.08035   0.00809  -0.07644
  29        2S         -0.02427  -0.13074  -0.08551  -0.00954   0.07757
  30        2PX         0.04676  -0.02605  -0.07585  -0.07368  -0.08244
  31        2PY         0.00020  -0.03084  -0.02057  -0.01045  -0.04094
  32        2PZ        -0.02577  -0.01451   0.03281   0.04115   0.03928
  33        3S         -0.05787  -0.26599  -0.20792  -0.01976   0.22921
  34        3PX        -0.00872  -0.00487  -0.01472  -0.01071  -0.02211
  35        3PY        -0.00605  -0.00339  -0.00704   0.00173  -0.01060
  36        3PZ         0.00211  -0.00611   0.00550   0.00858   0.02252
  37 5   C  1S          0.03149  -0.12119   0.07749   0.01404  -0.07767
  38        2S         -0.03423   0.13234  -0.08128  -0.01674   0.07972
  39        2PX         0.05798  -0.01733   0.00060   0.14193  -0.00210
  40        2PY         0.01891  -0.03162   0.00657   0.02068   0.02434
  41        2PZ        -0.00594   0.02474  -0.00555   0.01247  -0.00774
  42        3S         -0.07204   0.26670  -0.20187  -0.03485   0.23112
  43        3PX        -0.00773  -0.00306  -0.00075   0.02767   0.00040
  44        3PY         0.00308  -0.00309   0.00641  -0.00236   0.00589
  45        3PZ        -0.00270   0.00729  -0.00862   0.00911   0.00477
  46 6   C  1S         -0.04872   0.09005   0.08243   0.06434   0.07551
  47        2S          0.05353  -0.09847  -0.08687  -0.06792  -0.07616
  48        2PX         0.03023   0.05616   0.07031  -0.00740  -0.05425
  49        2PY         0.03754   0.03884   0.04703   0.02527  -0.06580
  50        2PZ         0.01786  -0.01574   0.00381   0.00503  -0.00599
  51        3S          0.10725  -0.19455  -0.21028  -0.17006  -0.22576
  52        3PX        -0.01092   0.00066   0.00667   0.00118  -0.01105
  53        3PY        -0.00746   0.00182   0.00015   0.01388  -0.02515
  54        3PZ         0.00435  -0.00352  -0.00307  -0.00009  -0.01344
  55 7   C  1S         -0.06062  -0.08105   0.02192  -0.12807  -0.00084
  56        2S          0.06635   0.08783  -0.02285   0.13409  -0.00137
  57        2PX         0.04807  -0.03844   0.06300   0.01924  -0.05348
  58        2PY        -0.04977   0.00404  -0.02415  -0.02298   0.07898
  59        2PZ        -0.00293  -0.01586   0.02185  -0.00714   0.00196
  60        3S          0.13691   0.17662  -0.05071   0.33647   0.00802
  61        3PX        -0.00468  -0.00060   0.01397  -0.00841  -0.00607
  62        3PY        -0.00230  -0.00353   0.00068  -0.00408   0.01955
  63        3PZ        -0.00435  -0.00659   0.00986  -0.01308  -0.00025
  64 8   C  1S         -0.11501  -0.00828  -0.04285  -0.02161   0.06813
  65        2S          0.12311   0.00926   0.04466   0.02413  -0.06919
  66        2PX         0.01040  -0.00898   0.08815  -0.08902   0.08127
  67        2PY         0.01311   0.06760   0.01724   0.12855   0.02630
  68        2PZ         0.00402   0.01632   0.04506   0.00768   0.05641
  69        3S          0.25463   0.01772   0.10588   0.06396  -0.21044
  70        3PX         0.01065   0.00187   0.00412  -0.01046   0.01918
  71        3PY        -0.00576   0.00375  -0.00143   0.04671   0.00491
  72        3PZ        -0.00521   0.00464  -0.00204   0.01662   0.01924
  73 9   H  1S         -0.03851  -0.03574   0.03198   0.05073   0.05028
  74        2S          0.00240  -0.00261   0.00613   0.01864   0.02183
  75 10  H  1S         -0.04854   0.00097   0.05276   0.00061  -0.06605
  76        2S          0.00120   0.00204   0.01276  -0.00090  -0.02945
  77 11  H  1S         -0.03747   0.03886  -0.00357  -0.06927  -0.02022
  78        2S          0.00084  -0.00024   0.00112  -0.02481  -0.00907
  79 12  H  1S         -0.01104  -0.05304  -0.04145  -0.00378   0.06492
  80        2S         -0.00187  -0.00179  -0.00979  -0.00053   0.02837
  81 13  H  1S         -0.01102   0.05321  -0.04246  -0.00522   0.06273
  82        2S          0.00091   0.00138  -0.01188   0.00053   0.02753
  83 14  H  1S          0.02521  -0.03841  -0.03795  -0.04818  -0.05373
  84        2S          0.00511   0.00027  -0.00478  -0.01901  -0.02154
  85 15  H  1S          0.02669   0.03763  -0.00597   0.07526   0.01820
  86        2S          0.00353   0.00283   0.00253   0.02284   0.01286
  87 16  C  1S         -0.08047  -0.00157  -0.12415   0.08733  -0.09698
  88        2S          0.08003   0.00175   0.11577  -0.08112   0.08826
  89        2PX        -0.04074  -0.00113  -0.02123  -0.00695   0.04120
  90        2PY         0.00555   0.00881   0.00693   0.02253   0.00344
  91        2PZ        -0.01783   0.00260  -0.00817   0.00629   0.02251
  92        3S          0.19592  -0.00035   0.37253  -0.28336   0.32822
  93        3PX        -0.00294   0.00225  -0.01675   0.00499   0.00702
  94        3PY        -0.00023   0.00111  -0.00096   0.00796   0.00035
  95        3PZ        -0.00122  -0.00135  -0.00906   0.00530   0.00299
  96 17  H  1S          0.03539  -0.00140   0.06193  -0.05575   0.06264
  97        2S         -0.00570  -0.00112   0.00491  -0.01221   0.02174
  98 18  H  1S          0.03580  -0.00117   0.06318  -0.05623   0.06195
  99        2S         -0.00296  -0.00270   0.00524  -0.01531   0.01824
 100 19  H  1S          0.03488   0.00426   0.06529  -0.04031   0.07105
 101        2S          0.00016   0.00412   0.01224  -0.00208   0.02633
                          16        17        18        19        20
                           O         O         O         O         O
     Eigenvalues --    -0.77431  -0.75567  -0.67746  -0.63681  -0.62499
   1 1   C  1S         -0.05827  -0.05540   0.01414   0.00863   0.02769
   2        2S          0.06022   0.05672  -0.00885  -0.01167  -0.02867
   3        2PX        -0.07674   0.06933   0.05802   0.10712   0.04794
   4        2PY         0.04235  -0.09446   0.14688  -0.13031  -0.00770
   5        2PZ         0.08690  -0.03778  -0.08823  -0.09943  -0.02037
   6        3S          0.19115   0.18817  -0.06850  -0.01801  -0.08740
   7        3PX        -0.02644   0.03683   0.03845   0.05789   0.02623
   8        3PY         0.01382  -0.04905   0.10109  -0.07057   0.01464
   9        3PZ         0.03412  -0.02072  -0.05722  -0.05587  -0.01931
  10 2   C  1S          0.00261   0.07679  -0.00725  -0.00209  -0.02240
  11        2S         -0.00197  -0.07846   0.01325   0.00008   0.01893
  12        2PX         0.04403   0.04234   0.12773  -0.06141  -0.11665
  13        2PY        -0.15923  -0.00634   0.00538   0.18525   0.02948
  14        2PZ         0.05870  -0.04790  -0.09064  -0.05674   0.10066
  15        3S         -0.01034  -0.25964   0.00490   0.01920   0.09262
  16        3PX         0.02029   0.02433   0.08217  -0.04026  -0.09332
  17        3PY        -0.06549  -0.01624   0.00527   0.10557   0.02685
  18        3PZ         0.02558  -0.02003  -0.05781  -0.03171   0.08583
  19 3   C  1S          0.06292  -0.05651   0.01487   0.00035   0.03278
  20        2S         -0.06406   0.05842  -0.00955  -0.00211  -0.03926
  21        2PX         0.09839   0.02600   0.13964  -0.08726  -0.12663
  22        2PY         0.07287   0.07919  -0.08895  -0.13532   0.02208
  23        2PZ        -0.04323  -0.07317   0.05469   0.10536  -0.01443
  24        3S         -0.20790   0.18904  -0.06934   0.00907  -0.08103
  25        3PX         0.04838   0.00696   0.09594  -0.04578  -0.06934
  26        3PY         0.03717   0.02526  -0.05457  -0.07754   0.01319
  27        3PZ        -0.02397  -0.02923   0.03363   0.06120  -0.01255
  28 4   C  1S          0.08245   0.01082  -0.00533  -0.00798  -0.03224
  29        2S         -0.08500  -0.01093   0.01115   0.00417   0.03746
  30        2PX         0.01144  -0.13387   0.02095  -0.17707   0.05883
  31        2PY         0.03967  -0.00831   0.13302  -0.08837   0.08692
  32        2PZ         0.03310   0.10588   0.05166   0.07946   0.05337
  33        3S         -0.27251  -0.03825  -0.00096   0.04878   0.07634
  34        3PX         0.01561  -0.06002   0.01215  -0.10577   0.02675
  35        3PY         0.02054  -0.00329   0.08378  -0.05904   0.04447
  36        3PZ         0.01130   0.04809   0.03506   0.04668   0.03843
  37 5   C  1S         -0.08319   0.01597  -0.00555   0.00383  -0.02060
  38        2S          0.08543  -0.01485   0.01052  -0.00491   0.01770
  39        2PX         0.01655  -0.16166   0.03336   0.18910   0.05487
  40        2PY         0.04297  -0.05175  -0.11788   0.00849   0.16206
  41        2PZ        -0.03042  -0.02545   0.06378   0.05395  -0.10550
  42        3S          0.27532  -0.05875   0.00372  -0.00873   0.08988
  43        3PX         0.02157  -0.07496   0.02111   0.10658   0.02929
  44        3PY         0.02185  -0.02755  -0.07599   0.00415   0.13603
  45        3PZ        -0.01075  -0.01301   0.03874   0.03518  -0.08214
  46 6   C  1S         -0.05648   0.04085   0.01085   0.01720   0.01822
  47        2S          0.05821  -0.04145  -0.00644  -0.01878  -0.01366
  48        2PX         0.11523   0.05953  -0.11080   0.14875  -0.15472
  49        2PY         0.07954   0.12578   0.04114   0.12328   0.05052
  50        2PZ         0.00352   0.07218   0.08558   0.03382   0.17680
  51        3S          0.17815  -0.14026  -0.05103  -0.05742  -0.08824
  52        3PX         0.05296   0.01408  -0.07543   0.07738  -0.13223
  53        3PY         0.03356   0.04835   0.03157   0.05797   0.04084
  54        3PZ        -0.00227   0.03298   0.05758   0.01244   0.14108
  55 7   C  1S          0.05038   0.04856   0.00896  -0.01039   0.02531
  56        2S         -0.05275  -0.04747  -0.00585   0.00803  -0.02784
  57        2PX        -0.11520   0.08181  -0.09839  -0.14793  -0.01200
  58        2PY         0.04956  -0.14676  -0.06012   0.10124  -0.02756
  59        2PZ        -0.05255  -0.00284  -0.02785  -0.05054  -0.03254
  60        3S         -0.14885  -0.17000  -0.03533   0.06576  -0.07590
  61        3PX        -0.03527   0.03195  -0.05743  -0.07971  -0.02516
  62        3PY         0.00638  -0.07127  -0.04879   0.04713  -0.04170
  63        3PZ        -0.02309  -0.00345  -0.01565  -0.03302  -0.02219
  64 8   C  1S         -0.00018  -0.09041   0.01437  -0.00159  -0.02928
  65        2S         -0.00135   0.09290  -0.01128  -0.00141   0.03264
  66        2PX         0.01322  -0.02633  -0.07740   0.02085  -0.03197
  67        2PY        -0.16477  -0.00530  -0.02753  -0.16017  -0.04967
  68        2PZ        -0.07707  -0.00880   0.00165  -0.07992   0.01953
  69        3S          0.00290   0.30801  -0.05831   0.01648   0.09096
  70        3PX         0.01583  -0.01013  -0.04829   0.01855   0.00625
  71        3PY        -0.09859  -0.01563  -0.01702  -0.12519  -0.03450
  72        3PZ        -0.04207  -0.00839   0.00265  -0.05756   0.01054
  73 9   H  1S          0.06183   0.06132  -0.11471   0.00158  -0.03758
  74        2S          0.03530   0.03172  -0.08118   0.00211  -0.02182
  75 10  H  1S         -0.00496  -0.09250  -0.08136   0.01361   0.11929
  76        2S          0.00019  -0.05151  -0.06110   0.00849   0.08627
  77 11  H  1S         -0.06943   0.06009  -0.11101  -0.00810   0.04523
  78        2S         -0.03513   0.03513  -0.07903  -0.00693   0.04475
  79 12  H  1S         -0.08848  -0.01813  -0.07642   0.04852  -0.03959
  80        2S         -0.04655  -0.01382  -0.05719   0.03584  -0.03983
  81 13  H  1S          0.08862  -0.02611  -0.07151  -0.02091   0.13927
  82        2S          0.04692  -0.01204  -0.05431  -0.01715   0.10162
  83 14  H  1S          0.06592  -0.06009  -0.09164   0.00284  -0.16822
  84        2S          0.03274  -0.03825  -0.06361   0.00424  -0.12495
  85 15  H  1S         -0.05690  -0.07900  -0.06605  -0.00120  -0.04972
  86        2S         -0.03243  -0.04550  -0.04658  -0.00416  -0.03035
  87 16  C  1S          0.00262   0.03971  -0.01936   0.00152  -0.00265
  88        2S         -0.00107  -0.03507   0.01501  -0.00169   0.00226
  89        2PX         0.00117  -0.07920   0.05531   0.00388  -0.04033
  90        2PY        -0.04937   0.00494  -0.02572  -0.10603  -0.02553
  91        2PZ        -0.02599  -0.03220   0.04381  -0.06267   0.03622
  92        3S         -0.01502  -0.15810   0.08436  -0.01013  -0.00177
  93        3PX         0.00658  -0.03366   0.03075   0.00492  -0.02274
  94        3PY        -0.02385   0.00161  -0.01879  -0.07399  -0.02185
  95        3PZ        -0.01061  -0.01248   0.02984  -0.04548   0.03748
  96 17  H  1S          0.01080  -0.03990   0.04263   0.02512   0.02974
  97        2S          0.00638  -0.02411   0.02810   0.02036   0.02072
  98 18  H  1S          0.01564  -0.04263   0.01829   0.04370  -0.03183
  99        2S          0.01248  -0.02725   0.01075   0.03583  -0.03354
 100 19  H  1S         -0.03096  -0.04810   0.02194  -0.07652  -0.00986
 101        2S         -0.02480  -0.02969   0.01292  -0.06204  -0.01164
                          21        22        23        24        25
                           O         O         O         O         O
     Eigenvalues --    -0.62203  -0.60917  -0.58939  -0.55686  -0.53795
   1 1   C  1S         -0.03750   0.01351  -0.01018  -0.00383  -0.00585
   2        2S          0.04295  -0.00900   0.01161   0.00393   0.00435
   3        2PX         0.04451  -0.03024  -0.02950  -0.09161   0.08315
   4        2PY         0.04125   0.20295  -0.01001   0.05660  -0.08474
   5        2PZ        -0.04388  -0.14935  -0.01446   0.00682  -0.04507
   6        3S          0.10463  -0.07495   0.02933   0.00668   0.03012
   7        3PX         0.01870  -0.00886  -0.02876  -0.05957   0.05464
   8        3PY         0.00798   0.16251  -0.02154   0.03370  -0.06322
   9        3PZ        -0.02293  -0.12711  -0.01018  -0.00028  -0.02280
  10 2   C  1S          0.02915  -0.03119   0.01080   0.00338  -0.00555
  11        2S         -0.02946   0.03753  -0.01166  -0.00253   0.00479
  12        2PX         0.07884   0.08308  -0.01947   0.03440  -0.01458
  13        2PY        -0.02315  -0.09132  -0.03083  -0.09071   0.13316
  14        2PZ        -0.11589  -0.10458  -0.04282  -0.06301  -0.04139
  15        3S         -0.10544   0.06939  -0.03123  -0.02028   0.02574
  16        3PX         0.08320   0.04165  -0.00452   0.03357  -0.01060
  17        3PY        -0.01535  -0.05265  -0.02077  -0.05914   0.08532
  18        3PZ        -0.09524  -0.07236  -0.04068  -0.06387  -0.02594
  19 3   C  1S         -0.02846   0.02395  -0.00124  -0.00267   0.00779
  20        2S          0.02741  -0.02531  -0.00222   0.00080  -0.00831
  21        2PX        -0.16728  -0.01693  -0.14601  -0.08912   0.01220
  22        2PY        -0.01580  -0.04841  -0.02674  -0.00627  -0.09958
  23        2PZ        -0.04041  -0.02565  -0.06787  -0.06104   0.08290
  24        3S          0.10998  -0.07181   0.02333   0.01843  -0.02379
  25        3PX        -0.13881   0.00716  -0.11615  -0.07902   0.03921
  26        3PY         0.01138  -0.03337  -0.01133   0.00610  -0.07688
  27        3PZ        -0.03554  -0.01564  -0.06573  -0.05656   0.06529
  28 4   C  1S          0.02718  -0.02071   0.01022   0.01199   0.01462
  29        2S         -0.02418   0.02126  -0.01230  -0.01521  -0.01530
  30        2PX         0.02997  -0.10880  -0.03335  -0.02349  -0.07036
  31        2PY         0.15942  -0.05709   0.01953  -0.08341   0.01764
  32        2PZ         0.11743  -0.06283  -0.02556  -0.08374   0.07871
  33        3S         -0.10904   0.07504  -0.01528  -0.03914  -0.04963
  34        3PX         0.03257  -0.07166  -0.01994  -0.02385  -0.04238
  35        3PY         0.13687  -0.06483   0.03477  -0.07448   0.03433
  36        3PZ         0.09395  -0.05726  -0.02487  -0.06710   0.06147
  37 5   C  1S          0.03829  -0.01659   0.01031   0.00815  -0.01455
  38        2S         -0.04507   0.01373  -0.01268  -0.00920   0.01283
  39        2PX         0.04220   0.00179   0.10307   0.06121   0.03846
  40        2PY         0.08430   0.11929   0.01610  -0.00014   0.06143
  41        2PZ        -0.02198  -0.11735  -0.07820  -0.01776  -0.04281
  42        3S         -0.09802   0.06868  -0.01228  -0.02110   0.06722
  43        3PX         0.02471   0.00057   0.06132   0.03996   0.03129
  44        3PY         0.03418   0.10148   0.00368  -0.01011   0.07022
  45        3PZ        -0.01056  -0.10037  -0.05550  -0.01234  -0.04559
  46 6   C  1S         -0.03635   0.02660  -0.00739   0.00310  -0.02073
  47        2S          0.03882  -0.03086   0.00841  -0.00651   0.01594
  48        2PX        -0.01001   0.05901  -0.00901   0.04883   0.08870
  49        2PY        -0.00085   0.02176   0.04518   0.00199   0.01438
  50        2PZ         0.02425  -0.05564  -0.07187  -0.03473  -0.06360
  51        3S          0.10647  -0.07054   0.02308   0.01296   0.09407
  52        3PX         0.01315   0.01733   0.01671   0.02023   0.07920
  53        3PY        -0.00313   0.02124   0.03343  -0.00951  -0.00044
  54        3PZ         0.00280  -0.04053  -0.06016  -0.01882  -0.06464
  55 7   C  1S         -0.02734   0.02606  -0.01508  -0.01666   0.02869
  56        2S          0.02298  -0.02863   0.02026   0.01872  -0.02907
  57        2PX         0.04771   0.06442  -0.02320  -0.04579  -0.01628
  58        2PY         0.18104   0.01805  -0.14682  -0.05438  -0.01812
  59        2PZ         0.07841  -0.02605  -0.14456  -0.00717  -0.02852
  60        3S          0.11907  -0.07666   0.01045   0.04896  -0.10525
  61        3PX         0.05313   0.02917  -0.01661  -0.03768  -0.00464
  62        3PY         0.14218   0.00500  -0.10244  -0.04331  -0.03596
  63        3PZ         0.06971  -0.02933  -0.11142   0.00187  -0.02077
  64 8   C  1S          0.03769  -0.03290   0.02023   0.00103   0.00115
  65        2S         -0.04008   0.03166  -0.01522  -0.00015  -0.00011
  66        2PX         0.02423   0.11208  -0.17148  -0.08643   0.00418
  67        2PY        -0.06571   0.01347   0.12158  -0.01101   0.00314
  68        2PZ        -0.00900  -0.00619  -0.12687   0.04741   0.00770
  69        3S         -0.11931   0.12512  -0.10360  -0.01001  -0.01410
  70        3PX        -0.00646   0.10146  -0.13712  -0.06344  -0.00071
  71        3PY        -0.03722   0.00679   0.09226  -0.01294  -0.00354
  72        3PZ        -0.01326  -0.00432  -0.10058   0.03424   0.00385
  73 9   H  1S         -0.00741  -0.16721   0.01355  -0.00976   0.02054
  74        2S         -0.01749  -0.12668   0.00705  -0.00877   0.01540
  75 10  H  1S         -0.11521  -0.06001  -0.02372  -0.05851   0.00059
  76        2S         -0.08027  -0.05672  -0.01450  -0.04674  -0.00158
  77 11  H  1S          0.12282  -0.01888   0.09610   0.07182  -0.06529
  78        2S          0.08625  -0.00790   0.07561   0.05916  -0.05232
  79 12  H  1S         -0.15217   0.08646  -0.00684   0.07042  -0.04688
  80        2S         -0.11054   0.06064  -0.00132   0.06233  -0.03579
  81 13  H  1S          0.01488   0.12227   0.02579  -0.00249   0.06967
  82        2S          0.02301   0.09121   0.02396   0.00145   0.05506
  83 14  H  1S          0.02054   0.01945   0.02971   0.03086   0.08554
  84        2S          0.00497   0.02262   0.02357   0.02773   0.06270
  85 15  H  1S          0.15033  -0.00695  -0.10954  -0.02984  -0.04651
  86        2S          0.10999   0.00196  -0.09201  -0.03067  -0.02691
  87 16  C  1S          0.00227   0.00904  -0.01195  -0.00115  -0.00001
  88        2S         -0.00274  -0.00474   0.00453  -0.00048   0.00133
  89        2PX         0.02102  -0.08833   0.23842  -0.06823  -0.05557
  90        2PY        -0.00538   0.03784   0.04357  -0.17520   0.22325
  91        2PZ         0.01213  -0.09565  -0.01169   0.24695   0.19858
  92        3S          0.00506  -0.06542   0.09258   0.01542   0.00033
  93        3PX         0.00344  -0.04657   0.16034  -0.06692  -0.04730
  94        3PY         0.00100   0.02592   0.04002  -0.15482   0.20646
  95        3PZ         0.00590  -0.06728  -0.02537   0.21199   0.17909
  96 17  H  1S          0.00561  -0.06634  -0.01785   0.20714  -0.03177
  97        2S          0.00833  -0.05966  -0.01147   0.18806  -0.02707
  98 18  H  1S          0.00141  -0.00303   0.11547  -0.13476  -0.16320
  99        2S          0.00532  -0.00574   0.10687  -0.12403  -0.15400
 100 19  H  1S          0.00841  -0.03464   0.07373  -0.03287   0.19220
 101        2S          0.01394  -0.03061   0.06164  -0.02977   0.17628
                          26        27        28        29        30
                           O         O         O         O         O
     Eigenvalues --    -0.50658  -0.49478  -0.46365  -0.41957  -0.36543
   1 1   C  1S         -0.00390  -0.00764  -0.01723  -0.00900  -0.01292
   2        2S          0.00295   0.00774   0.01722   0.01055   0.01257
   3        2PX        -0.07452   0.11776   0.09666   0.08996  -0.06619
   4        2PY        -0.05660  -0.06268   0.04747   0.13331  -0.03523
   5        2PZ         0.14516  -0.03081  -0.11818   0.08002  -0.02601
   6        3S          0.01386   0.02651   0.06119   0.03181   0.06387
   7        3PX        -0.06970   0.08233   0.07581   0.11922  -0.08657
   8        3PY        -0.09086  -0.04908   0.08076   0.12234  -0.05130
   9        3PZ         0.14365  -0.00688  -0.12165   0.08324  -0.01109
  10 2   C  1S          0.00356  -0.00914   0.01670  -0.00940   0.01379
  11        2S         -0.00217   0.00933  -0.01660   0.01095  -0.01535
  12        2PX         0.07841   0.00412  -0.07293   0.17228   0.00327
  13        2PY         0.06043   0.13694  -0.08003  -0.00021   0.02540
  14        2PZ        -0.14116  -0.00993   0.11369   0.05711  -0.02173
  15        3S         -0.01577   0.03374  -0.06220   0.03250  -0.06487
  16        3PX         0.10456   0.00031  -0.08914   0.18200   0.01897
  17        3PY         0.03790   0.09385  -0.04679   0.02712   0.02806
  18        3PZ        -0.14721   0.00758   0.12591   0.06427  -0.04189
  19 3   C  1S         -0.01091   0.00374   0.01634   0.00732   0.00459
  20        2S          0.01087  -0.00278  -0.01663  -0.00807  -0.00916
  21        2PX        -0.08246   0.06234  -0.07093  -0.10626  -0.05878
  22        2PY        -0.15790  -0.07075   0.11768   0.08083   0.09941
  23        2PZ         0.04629   0.07510  -0.08452   0.10810   0.18294
  24        3S          0.04005  -0.01390  -0.05536  -0.02654  -0.01331
  25        3PX        -0.06223   0.09110  -0.10310  -0.10173  -0.05290
  26        3PY        -0.10591  -0.07395   0.09669   0.10835   0.12184
  27        3PZ         0.02399   0.07616  -0.08301   0.11438   0.20636
  28 4   C  1S          0.00841   0.00218  -0.01555   0.00645   0.00090
  29        2S         -0.00752  -0.00190   0.01592  -0.00736   0.00365
  30        2PX         0.18441  -0.00490  -0.05295   0.02671  -0.08616
  31        2PY         0.00208   0.06916   0.09617  -0.14543   0.15322
  32        2PZ        -0.06295   0.10065   0.11602   0.06770  -0.15828
  33        3S         -0.03998  -0.00562   0.04938  -0.01502  -0.01420
  34        3PX         0.12525   0.00805  -0.01945   0.05519  -0.11307
  35        3PY         0.00238   0.09553   0.11261  -0.15567   0.17677
  36        3PZ        -0.02980   0.10554   0.11884   0.06667  -0.16990
  37 5   C  1S         -0.00850   0.00165  -0.01710   0.00986   0.00122
  38        2S          0.00936  -0.00209   0.01800  -0.01136  -0.00537
  39        2PX         0.16861  -0.08771   0.10731   0.02351  -0.01599
  40        2PY         0.01419   0.08767  -0.09615   0.13915   0.15121
  41        2PZ        -0.02367  -0.10385   0.08569   0.08350   0.16940
  42        3S          0.02234  -0.01576   0.05110  -0.03209   0.00034
  43        3PX         0.10199  -0.07376   0.06548   0.00053  -0.03404
  44        3PY         0.02372   0.11209  -0.11230   0.14008   0.17450
  45        3PZ        -0.03621  -0.10948   0.09575   0.10192   0.18816
  46 6   C  1S          0.00997   0.00706   0.01718   0.00999  -0.00429
  47        2S         -0.00875  -0.00815  -0.01700  -0.01137   0.01001
  48        2PX        -0.10813   0.01313   0.02557   0.12234  -0.13164
  49        2PY        -0.14711  -0.12161  -0.13055  -0.06071   0.10647
  50        2PZ         0.01512  -0.11492  -0.11261   0.06018  -0.14674
  51        3S         -0.03349  -0.01643  -0.04987  -0.03603   0.00860
  52        3PX        -0.08977   0.05235   0.05216   0.12347  -0.14262
  53        3PY        -0.09156  -0.11048  -0.10689  -0.07305   0.12668
  54        3PZ         0.03161  -0.11422  -0.12562   0.07784  -0.17290
  55 7   C  1S          0.00718  -0.00734  -0.01658  -0.00639   0.01202
  56        2S         -0.00580   0.00869   0.01756   0.00702  -0.01153
  57        2PX        -0.09858   0.16583  -0.14465  -0.05467  -0.04732
  58        2PY        -0.03904  -0.12031  -0.05062  -0.10510  -0.03516
  59        2PZ        -0.08829   0.00441  -0.06842   0.06495   0.06212
  60        3S         -0.02444   0.00671   0.05280   0.01421  -0.05712
  61        3PX        -0.11779   0.08706  -0.14278  -0.07193  -0.07746
  62        3PY        -0.06498  -0.07327  -0.07764  -0.09969  -0.05038
  63        3PZ        -0.09699  -0.00776  -0.08503   0.07626   0.05780
  64 8   C  1S         -0.01409   0.00896   0.01107  -0.00917  -0.01400
  65        2S          0.01277  -0.00909  -0.01114   0.00884   0.01484
  66        2PX         0.14159  -0.03222   0.13460  -0.10839   0.00493
  67        2PY         0.04532   0.19567   0.08024   0.00190   0.01978
  68        2PZ         0.08992   0.04555   0.09657   0.06531   0.02700
  69        3S          0.05714  -0.02678  -0.03433   0.03732   0.07034
  70        3PX         0.16531  -0.04175   0.15156  -0.10163   0.02535
  71        3PY         0.04472   0.16503   0.06135  -0.01099   0.01881
  72        3PZ         0.09074   0.03337   0.10547   0.08780   0.03789
  73 9   H  1S          0.12056   0.01285  -0.09028  -0.05242   0.04596
  74        2S          0.10307   0.00678  -0.08702  -0.06224   0.04483
  75 10  H  1S         -0.12117   0.01379   0.08695  -0.05861  -0.03887
  76        2S         -0.10322   0.00750   0.08314  -0.06817  -0.03669
  77 11  H  1S          0.01200  -0.08966   0.09528   0.05920   0.00206
  78        2S          0.00573  -0.07638   0.09248   0.06733   0.00434
  79 12  H  1S         -0.01573  -0.09118  -0.09297   0.06066  -0.01894
  80        2S         -0.01025  -0.07793  -0.08940   0.06904  -0.01969
  81 13  H  1S          0.02759   0.10464  -0.09076   0.04584   0.02336
  82        2S          0.01825   0.09230  -0.08864   0.05652   0.02509
  83 14  H  1S         -0.03495   0.09916   0.09851   0.03568  -0.00124
  84        2S         -0.02567   0.09339   0.09472   0.04884  -0.00219
  85 15  H  1S         -0.10036  -0.01315  -0.09734  -0.05624  -0.03929
  86        2S         -0.08597  -0.01710  -0.09603  -0.06296  -0.03897
  87 16  C  1S         -0.01222   0.00446  -0.01377   0.00951  -0.01080
  88        2S          0.01609  -0.00553   0.01707  -0.00810   0.00979
  89        2PX        -0.14077   0.02654  -0.13308   0.08102  -0.03853
  90        2PY         0.02508  -0.19039   0.01619   0.03580  -0.01545
  91        2PZ        -0.09862  -0.01253  -0.04182  -0.01339  -0.01959
  92        3S         -0.00003  -0.00621   0.01555  -0.04339   0.04153
  93        3PX        -0.08757   0.01071  -0.09466   0.07522  -0.02389
  94        3PY         0.00982  -0.19225   0.00300   0.03612  -0.01724
  95        3PZ        -0.07602  -0.02397  -0.03087  -0.02047  -0.00742
  96 17  H  1S         -0.05003   0.10293  -0.01742  -0.03992   0.00665
  97        2S         -0.05732   0.11051  -0.02505  -0.03456  -0.01508
  98 18  H  1S         -0.00746   0.04768  -0.03095   0.04310   0.00504
  99        2S         -0.01938   0.05646  -0.03736   0.05973   0.00149
 100 19  H  1S         -0.04643  -0.12653  -0.03035   0.02904  -0.02457
 101        2S         -0.05742  -0.12451  -0.04417   0.03373  -0.04445
                          31        32        33        34        35
                           O         O         V         V         V
     Eigenvalues --    -0.35703  -0.29725   0.11007   0.18702   0.19017
   1 1   C  1S          0.00385   0.00919   0.01182  -0.01069   0.02332
   2        2S         -0.00776  -0.01532  -0.00213   0.00486  -0.02126
   3        2PX        -0.13712   0.12015   0.12870   0.10881   0.09956
   4        2PY        -0.08400  -0.00124   0.03584   0.07093   0.02722
   5        2PZ        -0.14053   0.10205   0.10061   0.11026   0.04869
   6        3S         -0.01151  -0.02825  -0.17178   0.12447  -0.24110
   7        3PX        -0.16406   0.15701   0.31080   0.30606   0.18178
   8        3PY        -0.09206   0.02873  -0.03147   0.09640   0.16626
   9        3PZ        -0.16370   0.13259   0.14809   0.23081   0.09436
  10 2   C  1S         -0.00241   0.00752  -0.01261  -0.00320   0.02694
  11        2S         -0.00156  -0.01386   0.00304   0.00717  -0.02118
  12        2PX        -0.16893   0.06720  -0.10696  -0.14874  -0.01401
  13        2PY        -0.05696   0.08119  -0.07207  -0.06688   0.02965
  14        2PZ        -0.14265   0.10714  -0.10594  -0.11655  -0.02080
  15        3S          0.01888  -0.01792   0.17310   0.02683  -0.28939
  16        3PX        -0.19486   0.11556  -0.15092  -0.35284   0.03449
  17        3PY        -0.07739   0.08917  -0.25154  -0.17434  -0.05463
  18        3PZ        -0.15832   0.13540  -0.18097  -0.24420  -0.08045
  19 3   C  1S          0.01322   0.00976   0.01116  -0.02317  -0.01024
  20        2S         -0.01224  -0.01551  -0.00153   0.01982   0.00455
  21        2PX         0.01595  -0.02627   0.00905  -0.00598   0.04250
  22        2PY        -0.04822  -0.10862  -0.10117   0.08466  -0.09050
  23        2PZ        -0.02713  -0.13503  -0.12578   0.06738  -0.14472
  24        3S         -0.07079  -0.03276  -0.16251   0.25696   0.10930
  25        3PX         0.03001  -0.00361  -0.07398  -0.10390   0.02637
  26        3PY        -0.06618  -0.14437  -0.26543   0.15313  -0.26926
  27        3PZ        -0.01763  -0.17905  -0.18660   0.15225  -0.31376
  28 4   C  1S          0.01229   0.00876  -0.01127   0.02322   0.00454
  29        2S         -0.01304  -0.01515   0.00125  -0.01699  -0.00792
  30        2PX         0.00710  -0.10404   0.09260  -0.01645  -0.10330
  31        2PY        -0.01207   0.04634  -0.08448  -0.00821   0.13712
  32        2PZ         0.04414  -0.09977   0.10214   0.03004  -0.13499
  33        3S         -0.05440  -0.01805   0.16162  -0.26072  -0.03057
  34        3PX         0.01575  -0.11839   0.27823   0.07960  -0.24243
  35        3PY         0.00098   0.09221  -0.10921   0.04346   0.32553
  36        3PZ         0.06032  -0.13137   0.14881   0.05702  -0.29863
  37 5   C  1S         -0.01387   0.00781  -0.01151  -0.02386  -0.00309
  38        2S          0.01552  -0.01346   0.00244   0.01968   0.00554
  39        2PX        -0.02666   0.05434  -0.04818  -0.03182  -0.03340
  40        2PY         0.02387  -0.05236   0.08467  -0.00665   0.12806
  41        2PZ         0.00534  -0.14830   0.13549  -0.01260   0.16193
  42        3S          0.06632  -0.01820   0.16110   0.24755   0.03664
  43        3PX        -0.03863   0.05073  -0.20731   0.05080  -0.10676
  44        3PY         0.04418  -0.09475   0.11739   0.06437   0.29109
  45        3PZ        -0.00465  -0.18915   0.24708  -0.07622   0.36868
  46 6   C  1S         -0.01195   0.00876   0.01108   0.02581   0.01130
  47        2S          0.01250  -0.01255  -0.00144  -0.01684  -0.00891
  48        2PX         0.04707  -0.02174  -0.05690  -0.04370   0.10439
  49        2PY        -0.07886   0.09299   0.10773   0.08623  -0.09359
  50        2PZ         0.05947  -0.11269  -0.11580  -0.05004   0.12716
  51        3S          0.05831  -0.03830  -0.17482  -0.31106  -0.09366
  52        3PX         0.07559  -0.05497  -0.01300  -0.20862   0.19829
  53        3PY        -0.09323   0.12136   0.25525   0.16389  -0.24744
  54        3PZ         0.05766  -0.14676  -0.22423  -0.06804   0.32735
  55 7   C  1S         -0.00501   0.00687   0.01057   0.01096  -0.01824
  56        2S          0.01029  -0.01252  -0.00210  -0.00744   0.01998
  57        2PX        -0.06856  -0.07825  -0.06967   0.06488   0.06220
  58        2PY        -0.10527  -0.01193  -0.02802   0.08092   0.01681
  59        2PZ         0.18249   0.16980   0.13417  -0.15365  -0.08540
  60        3S          0.00466  -0.01052  -0.13485  -0.08242   0.13727
  61        3PX        -0.09139  -0.10325  -0.21088   0.20805   0.10391
  62        3PY        -0.10097  -0.04012   0.04256   0.10111   0.14728
  63        3PZ         0.21146   0.22115   0.23482  -0.34741  -0.17319
  64 8   C  1S         -0.00141   0.00745  -0.01289  -0.00082  -0.01805
  65        2S          0.00628  -0.01194   0.00156  -0.00488   0.01430
  66        2PX        -0.11246  -0.03414   0.05555  -0.09248  -0.01866
  67        2PY        -0.04029  -0.09142   0.07427  -0.07189   0.02922
  68        2PZ         0.18206   0.15319  -0.13830   0.18564   0.01000
  69        3S         -0.00382  -0.02633   0.19095   0.00331   0.19925
  70        3PX        -0.12945  -0.08284   0.06135  -0.19043   0.01963
  71        3PY        -0.04669  -0.11052   0.21045  -0.21803   0.02943
  72        3PZ         0.21444   0.19758  -0.21988   0.35498   0.07503
  73 9   H  1S         -0.00295   0.03158  -0.02047  -0.01518   0.05477
  74        2S         -0.00384   0.05642  -0.04140  -0.08008   0.34633
  75 10  H  1S          0.01021   0.03394   0.01962  -0.01658   0.05214
  76        2S          0.00859   0.05920   0.03690  -0.11437   0.32794
  77 11  H  1S         -0.04133   0.03093  -0.02149  -0.05049  -0.01462
  78        2S         -0.04089   0.05704  -0.04554  -0.31227  -0.07453
  79 12  H  1S         -0.03734   0.03326   0.02073   0.05078   0.01968
  80        2S         -0.03727   0.06041   0.04479   0.31076   0.13445
  81 13  H  1S          0.04095   0.03791   0.01788  -0.05302  -0.01461
  82        2S          0.04044   0.06523   0.03095  -0.31799  -0.09562
  83 14  H  1S          0.03584   0.03402  -0.01726   0.05012   0.01438
  84        2S          0.04036   0.06310  -0.05599   0.38385   0.10610
  85 15  H  1S         -0.01212   0.03483  -0.01817   0.01527  -0.05456
  86        2S         -0.01698   0.05715  -0.05117   0.05755  -0.27130
  87 16  C  1S          0.00671  -0.00726  -0.01098  -0.00358   0.02701
  88        2S         -0.00684   0.00494   0.01044   0.00540  -0.01634
  89        2PX         0.05680  -0.01674  -0.01360  -0.02946   0.04950
  90        2PY         0.02792   0.01020  -0.00058  -0.00098   0.01312
  91        2PZ        -0.05026  -0.04928   0.00023   0.01612   0.02280
  92        3S         -0.02444   0.04496   0.08644   0.00677  -0.26644
  93        3PX         0.04990  -0.02675   0.01287  -0.10413   0.13335
  94        3PY         0.02036   0.01359   0.04761   0.02879  -0.01851
  95        3PZ        -0.05630  -0.05062   0.00677   0.12308  -0.02175
  96 17  H  1S         -0.06118  -0.04263   0.04087  -0.04069  -0.00941
  97        2S         -0.08105  -0.07965   0.10698  -0.18458   0.08387
  98 18  H  1S          0.06518   0.03959  -0.02434   0.05318  -0.01431
  99        2S          0.09759   0.06446  -0.09970   0.29943  -0.00364
 100 19  H  1S          0.00726  -0.01090  -0.01515  -0.01196   0.02367
 101        2S          0.01535  -0.01294  -0.10967  -0.07379   0.10420
                          36        37        38        39        40
                           V         V         V         V         V
     Eigenvalues --     0.25874   0.27292   0.29552   0.30532   0.32524
   1 1   C  1S         -0.01050   0.04030   0.01122  -0.02140   0.03933
   2        2S          0.00152  -0.02342   0.00438   0.00765   0.00087
   3        2PX         0.09075  -0.04714   0.06424   0.03040   0.01660
   4        2PY         0.08324   0.02610   0.08768  -0.06061   0.11797
   5        2PZ         0.08074  -0.09098  -0.04080   0.04339  -0.11488
   6        3S          0.20960  -0.50414  -0.25333   0.27610  -0.64726
   7        3PX         0.18278  -0.08314   0.10249   0.15140   0.11188
   8        3PY         0.29721   0.09401   0.29312  -0.18764   0.42247
   9        3PZ         0.18772  -0.31927  -0.11021   0.19368  -0.40578
  10 2   C  1S          0.01951   0.02719   0.03321   0.00271   0.02186
  11        2S         -0.01085  -0.01430  -0.01353  -0.00539   0.01309
  12        2PX        -0.12484   0.09439   0.01589  -0.01124   0.12487
  13        2PY        -0.03307  -0.01487  -0.02500  -0.01999  -0.00614
  14        2PZ        -0.09403  -0.03176  -0.11405   0.00163  -0.10259
  15        3S         -0.29458  -0.32796  -0.45391   0.04078  -0.49373
  16        3PX        -0.34737   0.27760   0.08742  -0.05198   0.41040
  17        3PY         0.00928  -0.11542  -0.02142  -0.11494  -0.07460
  18        3PZ        -0.22750  -0.15469  -0.40514  -0.05492  -0.28350
  19 3   C  1S          0.02346   0.03286   0.02411   0.00571  -0.01023
  20        2S         -0.01238  -0.01990  -0.00503   0.00538  -0.01267
  21        2PX        -0.04375   0.09124   0.04792   0.07237  -0.07978
  22        2PY         0.06761  -0.04159   0.04047  -0.05228   0.05383
  23        2PZ         0.13078   0.01272   0.07049  -0.01250  -0.02944
  24        3S         -0.34442  -0.35992  -0.40574  -0.11608   0.34306
  25        3PX        -0.18311   0.37551   0.09761   0.23995  -0.25583
  26        3PY         0.08364  -0.09238   0.13401  -0.15122   0.15937
  27        3PZ         0.34665   0.10597   0.24324  -0.04733   0.00617
  28 4   C  1S         -0.00604   0.03253   0.03177  -0.03338  -0.02073
  29        2S         -0.00060  -0.01673  -0.01925   0.00917   0.00382
  30        2PX        -0.03411   0.06187   0.01085  -0.02679   0.03400
  31        2PY         0.10274   0.01394   0.01997  -0.11277  -0.08400
  32        2PZ        -0.07834   0.09599   0.00880  -0.06839  -0.01515
  33        3S          0.14343  -0.45786  -0.33070   0.45524   0.32234
  34        3PX         0.06228   0.18344   0.04570  -0.11473   0.10426
  35        3PY         0.31163   0.04246   0.14303  -0.36690  -0.39621
  36        3PZ        -0.20949   0.30059   0.15565  -0.31171  -0.04686
  37 5   C  1S         -0.01196   0.03345   0.02207   0.03194  -0.04221
  38        2S          0.00546  -0.01507  -0.01345  -0.00401   0.01003
  39        2PX         0.00733   0.01482  -0.02331  -0.02613   0.01614
  40        2PY        -0.11835  -0.03465  -0.06458  -0.03038   0.11092
  41        2PZ        -0.07876   0.08919  -0.02538   0.11714  -0.09057
  42        3S          0.20162  -0.49305  -0.23390  -0.52171   0.60775
  43        3PX        -0.09981   0.03088  -0.07220  -0.04938   0.05100
  44        3PY        -0.33472  -0.10691  -0.29489  -0.02605   0.47697
  45        3PZ        -0.13131   0.26315  -0.03648   0.37898  -0.38520
  46 6   C  1S          0.02845   0.03659  -0.01850   0.00302  -0.00747
  47        2S         -0.02743  -0.02268   0.01651  -0.01661  -0.00950
  48        2PX         0.06426  -0.10381   0.06289   0.02224   0.01785
  49        2PY        -0.06159   0.05320  -0.01882  -0.05667  -0.01047
  50        2PZ         0.06329   0.02801  -0.01953  -0.10718  -0.09347
  51        3S         -0.30242  -0.40571   0.14516   0.19251   0.24582
  52        3PX         0.27002  -0.35918   0.11618   0.08079   0.10902
  53        3PY        -0.04381   0.18909  -0.21596  -0.13936   0.07460
  54        3PZ         0.19813   0.20395  -0.26103  -0.24961  -0.25649
  55 7   C  1S          0.01210   0.04542  -0.02560   0.03565   0.00927
  56        2S         -0.00641  -0.03315   0.01323  -0.00508  -0.00283
  57        2PX        -0.06610  -0.00850   0.02795  -0.00144  -0.02199
  58        2PY        -0.12007  -0.01172   0.01398  -0.09021  -0.02663
  59        2PZ         0.07584  -0.06937   0.02352  -0.13938  -0.00683
  60        3S         -0.10053  -0.49409   0.30124  -0.53567  -0.10690
  61        3PX        -0.10852  -0.09243   0.11647  -0.13944  -0.13789
  62        3PY        -0.47920  -0.11110   0.17355  -0.30304  -0.25481
  63        3PZ         0.09250  -0.25826   0.05769  -0.52929   0.00727
  64 8   C  1S          0.02108   0.00863   0.01000  -0.01719  -0.00837
  65        2S         -0.00841  -0.01211  -0.00515   0.02655   0.01228
  66        2PX         0.06312  -0.02997   0.00936  -0.07915  -0.01216
  67        2PY         0.01854   0.00758  -0.01593  -0.04699  -0.01179
  68        2PZ        -0.12095   0.01631   0.00176   0.04040   0.00298
  69        3S         -0.40957  -0.12061   0.05957   0.06590  -0.04894
  70        3PX         0.19468  -0.07467  -0.16783  -0.14946   0.07574
  71        3PY         0.01579   0.10813  -0.15044  -0.06527   0.02111
  72        3PZ        -0.21318   0.00694  -0.03440   0.19772   0.02622
  73 9   H  1S          0.02515   0.00809   0.01809  -0.00883   0.01633
  74        2S          0.15944   0.54323   0.53612  -0.43914   0.99474
  75 10  H  1S         -0.02356   0.02695   0.01283   0.01107   0.01530
  76        2S         -0.02280   0.60462   0.64296   0.03635   0.83148
  77 11  H  1S         -0.01966   0.03897  -0.00597   0.00686  -0.00792
  78        2S          0.03708   0.72277   0.34328   0.35023  -0.47276
  79 12  H  1S          0.03108   0.00823   0.01713  -0.02545  -0.02128
  80        2S          0.20760   0.52474   0.39046  -0.84625  -0.51040
  81 13  H  1S          0.03117   0.01369   0.01155  -0.00109  -0.02119
  82        2S          0.24034   0.54655   0.35566   0.54040  -0.98405
  83 14  H  1S         -0.02275   0.02248   0.02032  -0.00461  -0.02578
  84        2S          0.03961   0.73950  -0.40022  -0.42557  -0.43469
  85 15  H  1S          0.02608   0.00716   0.02879   0.00619   0.00103
  86        2S          0.51692   0.50734  -0.24742   0.85749   0.26634
  87 16  C  1S          0.04813   0.02708  -0.11796  -0.01845   0.03054
  88        2S         -0.01803  -0.00310   0.02922   0.00822  -0.00485
  89        2PX        -0.02178  -0.08923   0.10961  -0.02078  -0.04653
  90        2PY        -0.03449   0.01458  -0.02660  -0.14020  -0.07197
  91        2PZ        -0.07124  -0.00078   0.00180  -0.02988  -0.00523
  92        3S         -0.60983  -0.41430   1.61564   0.21261  -0.44790
  93        3PX        -0.13696  -0.36097   0.46063  -0.05054  -0.18858
  94        3PY        -0.16486   0.07720  -0.09103  -0.60548  -0.30964
  95        3PZ        -0.36976  -0.01755  -0.01301  -0.12779   0.06488
  96 17  H  1S          0.02453   0.01176  -0.01098  -0.03758  -0.01664
  97        2S          0.40750   0.24459  -0.70972  -0.62488  -0.17187
  98 18  H  1S         -0.04696   0.01089  -0.01223   0.01643   0.01985
  99        2S         -0.11979   0.45096  -0.99916  -0.24908   0.29458
 100 19  H  1S          0.02935  -0.01094  -0.00124   0.02659   0.00787
 101        2S          0.66772   0.16531  -0.64166   0.62322   0.51460
                          41        42        43        44        45
                           V         V         V         V         V
     Eigenvalues --     0.32772   0.34988   0.36473   0.36718   0.38009
   1 1   C  1S          0.00603  -0.03428   0.02102   0.08662   0.04765
   2        2S         -0.00900   0.01399  -0.01967  -0.05123  -0.00488
   3        2PX        -0.03450   0.00105   0.03184   0.00836   0.02427
   4        2PY        -0.02646  -0.03674  -0.01628   0.08654   0.06213
   5        2PZ        -0.03667  -0.02303  -0.02941  -0.04571  -0.06384
   6        3S         -0.04414   0.28568  -0.13314  -0.95625  -0.88588
   7        3PX        -0.12099  -0.00958   0.23216   0.29674   0.07079
   8        3PY        -0.10629  -0.23299  -0.01205   0.66628   0.14980
   9        3PZ        -0.22584   0.05914  -0.25933  -0.42286  -0.29980
  10 2   C  1S         -0.02587   0.02195  -0.07290  -0.06762  -0.03536
  11        2S          0.00562  -0.01626   0.03660   0.03912   0.00452
  12        2PX        -0.00386   0.03639  -0.02943  -0.06944  -0.04916
  13        2PY         0.04541   0.00351   0.05879  -0.00752  -0.03784
  14        2PZ         0.08094  -0.02065   0.03046   0.05470   0.06131
  15        3S          0.39986  -0.17567   0.84273   0.69666   0.70930
  16        3PX         0.03776   0.25442  -0.41582  -0.51078  -0.09414
  17        3PY         0.10866   0.02075   0.08179  -0.10187  -0.13124
  18        3PZ         0.34540  -0.18761   0.26736   0.48627   0.28708
  19 3   C  1S         -0.02919  -0.01283   0.09920   0.01446  -0.04185
  20        2S          0.00059   0.00958  -0.04393  -0.01988   0.02455
  21        2PX        -0.10453  -0.01727   0.12603  -0.00825  -0.03544
  22        2PY         0.01350  -0.00421  -0.02200   0.05893   0.05325
  23        2PZ        -0.09444  -0.02644   0.02394  -0.00511  -0.04902
  24        3S          0.49827   0.11564  -1.17792   0.01275   0.55847
  25        3PX        -0.31779  -0.13229   0.75843   0.12479  -0.28560
  26        3PY         0.05414   0.06342  -0.33798  -0.02787   0.33590
  27        3PZ        -0.35099  -0.10732   0.23807  -0.02747  -0.34621
  28 4   C  1S          0.03197   0.05453   0.03069  -0.06437   0.01927
  29        2S          0.00428  -0.04044  -0.00054   0.03182  -0.01472
  30        2PX         0.03893  -0.01094   0.00341  -0.09251  -0.00427
  31        2PY         0.08615  -0.04194   0.04082  -0.05838   0.03660
  32        2PZ         0.07921   0.00137   0.03240  -0.03810   0.08560
  33        3S         -0.63294  -0.67652  -0.57508   0.62089  -0.23624
  34        3PX         0.09293  -0.10892   0.04940  -0.24162  -0.00229
  35        3PY         0.28767   0.04479   0.07798  -0.58286   0.24753
  36        3PZ         0.22938   0.18367   0.10411  -0.25545   0.47927
  37 5   C  1S          0.00028  -0.01030  -0.07254   0.01221   0.06464
  38        2S         -0.01071  -0.00206   0.04554   0.00584  -0.02750
  39        2PX        -0.01987   0.01560  -0.01401  -0.02359   0.00074
  40        2PY         0.08812   0.03733   0.07107  -0.03016  -0.07140
  41        2PZ        -0.02410   0.00306  -0.02285   0.00177   0.08910
  42        3S          0.04118   0.19286   0.75010  -0.35010  -0.83411
  43        3PX        -0.09179   0.09037  -0.16691  -0.16066   0.16062
  44        3PY         0.31658   0.08016   0.53785   0.01430  -0.55602
  45        3PZ        -0.02307   0.09651  -0.31422   0.02116   0.44988
  46 6   C  1S          0.04347  -0.04305  -0.02990   0.02787  -0.04975
  47        2S         -0.01494   0.00625   0.00215  -0.03034   0.01674
  48        2PX        -0.09384   0.00916  -0.00266   0.03098   0.01585
  49        2PY        -0.01928  -0.00668   0.01360   0.00400   0.02892
[...]
  93        3PX         0.00005   0.00000   0.00000   0.09613   0.00000
  94        3PY        -0.00019   0.00000   0.00000   0.00000   0.13261
  95        3PZ        -0.00000   0.00000   0.00000   0.00000   0.00000
  96 17  H  1S         -0.00000  -0.00077   0.00793  -0.00000   0.03242
  97        2S          0.00003   0.00150   0.00293   0.00002   0.02605
  98 18  H  1S          0.00000  -0.00077   0.00779   0.02302   0.00210
  99        2S          0.00010   0.00146   0.00284   0.02038   0.00172
 100 19  H  1S          0.00003  -0.00079   0.00814   0.00471   0.03773
 101        2S          0.00152   0.00126   0.00408   0.00427   0.02967
                          91        92        93        94        95
  91        2PZ         0.27400
  92        3S          0.00000   0.86574
  93        3PX         0.00000   0.00000   0.12814
  94        3PY         0.00000   0.00000   0.00000   0.23020
  95        3PZ         0.12257   0.00000   0.00000   0.00000   0.20109
  96 17  H  1S          0.02227   0.05499  -0.00007   0.05271   0.03350
  97        2S          0.01881   0.02553  -0.00004   0.05912   0.03957
  98 18  H  1S          0.02948   0.05408   0.03068   0.00353   0.05065
  99        2S          0.02385   0.02670   0.03777   0.00399   0.05816
 100 19  H  1S          0.01280   0.05522   0.00506   0.06368   0.01904
 101        2S          0.01030   0.02947   0.00674   0.07106   0.02145
                          96        97        98        99       100
  96 17  H  1S          0.17372
  97        2S          0.09523   0.14696
  98 18  H  1S         -0.00014  -0.00476   0.17429
  99        2S         -0.00488  -0.01703   0.09823   0.15405
 100 19  H  1S         -0.00014  -0.00419  -0.00014  -0.00437   0.17538
 101        2S         -0.00436  -0.01292  -0.00409  -0.01275   0.09397
                         101
 101        2S          0.13571
     Gross orbital populations:
                           1
   1 1   C  1S          1.98797
   2        2S          0.39613
   3        2PX         0.50366
   4        2PY         0.58945
   5        2PZ         0.50458
   6        3S          0.90312
   7        3PX         0.44710
   8        3PY         0.41616
   9        3PZ         0.48544
  10 2   C  1S          1.98796
  11        2S          0.39667
  12        2PX         0.49863
  13        2PY         0.59762
  14        2PZ         0.49986
  15        3S          0.90262
  16        3PX         0.53742
  17        3PY         0.28801
  18        3PZ         0.51721
  19 3   C  1S          1.98794
  20        2S          0.39598
  21        2PX         0.59683
  22        2PY         0.53400
  23        2PZ         0.46754
  24        3S          0.90151
  25        3PX         0.42876
  26        3PY         0.40927
  27        3PZ         0.51225
  28 4   C  1S          1.98795
  29        2S          0.39666
  30        2PX         0.57366
  31        2PY         0.52448
  32        2PZ         0.49870
  33        3S          0.89956
  34        3PX         0.33528
  35        3PY         0.53209
  36        3PZ         0.47709
  37 5   C  1S          1.98798
  38        2S          0.39699
  39        2PX         0.61193
  40        2PY         0.52413
  41        2PZ         0.45926
  42        3S          0.89914
  43        3PX         0.26003
  44        3PY         0.53101
  45        3PZ         0.55022
  46 6   C  1S          1.98813
  47        2S          0.39581
  48        2PX         0.57303
  49        2PY         0.52880
  50        2PZ         0.49283
  51        3S          0.89422
  52        3PX         0.40028
  53        3PY         0.39191
  54        3PZ         0.53094
  55 7   C  1S          1.98801
  56        2S          0.39443
  57        2PX         0.56166
  58        2PY         0.58152
  59        2PZ         0.45605
  60        3S          0.89828
  61        3PX         0.36576
  62        3PY         0.40649
  63        3PZ         0.57228
  64 8   C  1S          1.98850
  65        2S          0.39424
  66        2PX         0.56001
  67        2PY         0.59466
  68        2PZ         0.44963
  69        3S          0.87198
  70        3PX         0.36833
  71        3PY         0.34993
  72        3PZ         0.50006
  73 9   H  1S          0.46220
  74        2S          0.30927
  75 10  H  1S          0.46241
  76        2S          0.30892
  77 11  H  1S          0.46220
  78        2S          0.31064
  79 12  H  1S          0.46212
  80        2S          0.30909
  81 13  H  1S          0.46264
  82        2S          0.31121
  83 14  H  1S          0.46190
  84        2S          0.31118
  85 15  H  1S          0.46216
  86        2S          0.31611
  87 16  C  1S          1.98836
  88        2S          0.35252
  89        2PX         0.53694
  90        2PY         0.53878
  91        2PZ         0.53209
  92        3S          1.13648
  93        3PX         0.36716
  94        3PY         0.57902
  95        3PZ         0.53951
  96 17  H  1S          0.45232
  97        2S          0.33315
  98 18  H  1S          0.45359
  99        2S          0.34496
 100 19  H  1S          0.45617
 101        2S          0.33929
          Condensed to atoms (all electrons):
               1          2          3          4          5          6
     1  C    5.202299   0.568154  -0.099023   0.341800   0.003723  -0.097732
     2  C    0.568154   5.194184   0.341858  -0.099065  -0.097693   0.003590
     3  C   -0.099023   0.341858   5.203552  -0.002091   0.569511   0.001388
     4  C    0.341800  -0.099065  -0.002091   5.186104   0.001102   0.577013
     5  C    0.003723  -0.097693   0.569511   0.001102   5.183864  -0.003258
     6  C   -0.097732   0.003590   0.001388   0.577013  -0.003258   5.176807
     7  C    0.001978  -0.002209  -0.099287   0.001799   0.346027  -0.072669
     8  C   -0.001957   0.001775   0.003857  -0.099438  -0.100671   0.337547
     9  H    0.392784  -0.037275   0.002418  -0.043365  -0.000043   0.001029
    10  H   -0.037821   0.392975  -0.043209   0.002435   0.001109  -0.000048
    11  H    0.001114  -0.043954   0.392944   0.000229  -0.037419   0.000011
    12  H   -0.044264   0.001031   0.000250   0.392942   0.000027  -0.038830
    13  H   -0.000046   0.002444  -0.039154   0.000023   0.393108   0.000245
    14  H    0.002416  -0.000039   0.000011  -0.035471   0.000233   0.393571
    15  H    0.000009   0.000239   0.001063  -0.000031  -0.041589   0.002304
    16  C    0.000174  -0.000021  -0.000003   0.000940   0.002616  -0.089379
    17  H    0.000005   0.000003   0.000005   0.000498  -0.000049   0.000113
    18  H   -0.000001   0.000000  -0.000000   0.000081  -0.000080   0.000923
    19  H   -0.000001  -0.000001  -0.000002  -0.000038   0.000172   0.003321
               7          8          9         10         11         12
     1  C    0.001978  -0.001957   0.392784  -0.037821   0.001114  -0.044264
     2  C   -0.002209   0.001775  -0.037275   0.392975  -0.043954   0.001031
     3  C   -0.099287   0.003857   0.002418  -0.043209   0.392944   0.000250
     4  C    0.001799  -0.099438  -0.043365   0.002435   0.000229   0.392942
     5  C    0.346027  -0.100671  -0.000043   0.001109  -0.037419   0.000027
     6  C   -0.072669   0.337547   0.001029  -0.000048   0.000011  -0.038830
     7  C    5.176288   0.582425   0.000020   0.000227   0.002448  -0.000032
     8  C    0.582425   5.352301   0.000268   0.000021  -0.000040   0.002628
     9  H    0.000020   0.000268   0.456686  -0.001288  -0.000037   0.000302
    10  H    0.000227   0.000021  -0.001288   0.456711   0.000268  -0.000035
    11  H    0.002448  -0.000040  -0.000037   0.000268   0.458643   0.000016
    12  H   -0.000032   0.002628   0.000302  -0.000035   0.000016   0.458592
    13  H   -0.044817   0.001237   0.000001  -0.000035  -0.001354   0.000002
    14  H    0.000799  -0.047962  -0.000035   0.000001   0.000002  -0.001363
    15  H    0.398347  -0.042340   0.000002   0.000015  -0.000037   0.000001
    16  C   -0.068674   0.251886   0.000017   0.000001   0.000001  -0.000052
    17  H    0.001094  -0.055225  -0.000011  -0.000000  -0.000000  -0.000010
    18  H    0.000080  -0.058627   0.000000   0.000000   0.000000   0.000004
    19  H    0.000639  -0.050346  -0.000000  -0.000000  -0.000000   0.000001
              13         14         15         16         17         18
     1  C   -0.000046   0.002416   0.000009   0.000174   0.000005  -0.000001
     2  C    0.002444  -0.000039   0.000239  -0.000021   0.000003   0.000000
     3  C   -0.039154   0.000011   0.001063  -0.000003   0.000005  -0.000000
     4  C    0.000023  -0.035471  -0.000031   0.000940   0.000498   0.000081
     5  C    0.393108   0.000233  -0.041589   0.002616  -0.000049  -0.000080
     6  C    0.000245   0.393571   0.002304  -0.089379   0.000113   0.000923
     7  C   -0.044817   0.000799   0.398347  -0.068674   0.001094   0.000080
     8  C    0.001237  -0.047962  -0.042340   0.251886  -0.055225  -0.058627
     9  H    0.000001  -0.000035   0.000002   0.000017  -0.000011   0.000000
    10  H   -0.000035   0.000001   0.000015   0.000001  -0.000000   0.000000
    11  H   -0.001354   0.000002  -0.000037   0.000001  -0.000000   0.000000
    12  H    0.000002  -0.001363   0.000001  -0.000052  -0.000010   0.000004
    13  H    0.461928   0.000019   0.000289  -0.000042  -0.000001   0.000006
    14  H    0.000019   0.458781  -0.000042   0.000406  -0.000181   0.001966
    15  H    0.000289  -0.000042   0.459807  -0.001662   0.000035   0.000105
    16  C   -0.000042   0.000406  -0.001662   5.336860   0.376463   0.377438
    17  H   -0.000001  -0.000181   0.000035   0.376463   0.511144  -0.026805
    18  H    0.000006   0.001966   0.000105   0.377438  -0.026805   0.524806
    19  H   -0.000001  -0.000029   0.001761   0.383892  -0.021606  -0.021343
              19
     1  C   -0.000001
     2  C   -0.000001
     3  C   -0.000002
     4  C   -0.000038
     5  C    0.000172
     6  C    0.003321
     7  C    0.000639
     8  C   -0.050346
     9  H   -0.000000
    10  H   -0.000000
    11  H   -0.000000
    12  H    0.000001
    13  H   -0.000001
    14  H   -0.000029
    15  H    0.001761
    16  C    0.383892
    17  H   -0.021606
    18  H   -0.021343
    19  H    0.499034
 Mulliken charges:
               1
     1  C   -0.233609
     2  C   -0.225995
     3  C   -0.234088
     4  C   -0.225466
     5  C   -0.220687
     6  C   -0.195947
     7  C   -0.224481
     8  C   -0.077339
     9  H    0.228529
    10  H    0.228673
    11  H    0.227165
    12  H    0.228790
    13  H    0.226147
    14  H    0.226920
    15  H    0.221725
    16  C   -0.570860
    17  H    0.214528
    18  H    0.201448
    19  H    0.204548
 Sum of Mulliken charges =  -0.00000
 Mulliken charges with hydrogens summed into heavy atoms:
               1
     1  C   -0.005080
     2  C    0.002678
     3  C   -0.006923
     4  C    0.003324
     5  C    0.005459
     6  C    0.030973
     7  C   -0.002756
     8  C   -0.077339
    16  C    0.049664
 Electronic spatial extent (au):  <R**2>=           1131.2286
 Charge=             -0.0000 electrons
 Dipole moment (field-independent basis, Debye):
    X=              0.2154    Y=             -0.1472    Z=              0.0478  Tot=              0.2653
 Quadrupole moment (field-independent basis, Debye-Ang):
   XX=            -51.7881   YY=            -51.8152   ZZ=            -56.2330
   XY=              0.0558   XZ=             -1.0447   YZ=             -0.0041
 Traceless Quadrupole moment (field-independent basis, Debye-Ang):
   XX=              1.4907   YY=              1.4636   ZZ=             -2.9542
   XY=              0.0558   XZ=             -1.0447   YZ=             -0.0041
 Octapole moment (field-independent basis, Debye-Ang**2):
  XXX=             -1.0398  YYY=             -0.1634  ZZZ=              1.0936  XYY=             -1.3011
  XXY=              2.7828  XXZ=              3.1319  XZZ=              0.5192  YZZ=             -2.9307
  YYZ=             -3.0024  XYZ=              5.7925
 Hexadecapole moment (field-independent basis, Debye-Ang**3):
 XXXX=           -866.7820 YYYY=           -499.3740 ZZZZ=           -178.0641 XXXY=            -16.6680
 XXXZ=            -10.0721 YYYX=             16.8364 YYYZ=             -3.2666 ZZZX=             -6.7588
 ZZZY=              0.5373 XXYY=           -235.8360 XXZZ=           -166.6160 YYZZ=           -106.0504
 XXYZ=             -0.2890 YYXZ=              6.3545 ZZXY=             -0.9038
 N-N= 4.053306333187D+02 E-N=-1.611681676370D+03  KE= 3.436186277286D+02
 Orbital energies and kinetic energies (alpha):
                                 1                 2
   1         O               -11.184577         15.876101
   2         O               -11.179932         15.874355
   3         O               -11.178975         15.873647
   4         O               -11.178777         15.875119
   5         O               -11.178411         15.875164
   6         O               -11.176997         15.874700
   7         O               -11.176022         15.874353
   8         O               -11.171525         15.874803
   9         O               -11.169135         15.877109
  10         O                -1.136438          1.462824
  11         O                -1.075354          1.526227
  12         O                -1.056056          1.570064
  13         O                -0.974852          1.506385
  14         O                -0.924293          1.514695
  15         O                -0.867792          1.458804
  16         O                -0.774314          1.381306
  17         O                -0.755669          1.401012
  18         O                -0.677464          0.931264
  19         O                -0.636806          1.351748
  20         O                -0.624987          1.086827
  21         O                -0.622025          1.132834
  22         O                -0.609166          1.110682
  23         O                -0.589393          1.098016
  24         O                -0.556856          1.003070
  25         O                -0.537950          1.100129
  26         O                -0.506577          1.335040
  27         O                -0.494784          1.265560
  28         O                -0.463646          1.333490
  29         O                -0.419571          1.058605
  30         O                -0.365431          1.088292
  31         O                -0.357032          1.099444
  32         O                -0.297251          1.117646
  33         V                 0.110075          1.211020
  34         V                 0.187024          1.172157
  35         V                 0.190174          1.207066
  36         V                 0.258744          1.213544
  37         V                 0.272918          0.980171
  38         V                 0.295519          1.041640
  39         V                 0.305323          1.008595
  40         V                 0.325244          0.981995
  41         V                 0.327722          1.051924
  42         V                 0.349877          1.045075
  43         V                 0.364726          1.211209
  44         V                 0.367181          1.155327
  45         V                 0.380090          1.182737
  46         V                 0.386259          1.132136
  47         V                 0.424829          1.714597
  48         V                 0.462920          1.814470
  49         V                 0.565365          1.739821
  50         V                 0.570580          1.915671
  51         V                 0.630214          1.565697
  52         V                 0.631218          1.592844
  53         V                 0.663260          1.802938
  54         V                 0.767967          2.848247
  55         V                 0.790191          1.767166
  56         V                 0.868660          2.219679
  57         V                 0.919087          2.107881
  58         V                 0.927991          2.486098
  59         V                 0.961407          2.498058
  60         V                 0.966689          2.669056
  61         V                 0.987202          2.529142
  62         V                 0.990682          2.370143
  63         V                 1.010970          2.808413
  64         V                 1.035368          2.675667
  65         V                 1.040497          2.606870
  66         V                 1.083592          2.609618
  67         V                 1.092713          2.609372
  68         V                 1.100256          2.770717
  69         V                 1.108779          2.609905
  70         V                 1.135089          2.691787
  71         V                 1.162272          2.865743
  72         V                 1.176001          2.945306
  73         V                 1.184183          2.803355
  74         V                 1.230308          2.919275
  75         V                 1.235031          2.875932
  76         V                 1.291885          3.203650
  77         V                 1.304685          3.176182
  78         V                 1.313771          2.939432
  79         V                 1.328934          2.912943
  80         V                 1.332849          2.871071
  81         V                 1.363883          2.637389
  82         V                 1.371242          3.048134
  83         V                 1.387716          3.045096
  84         V                 1.399401          2.616825
  85         V                 1.418342          3.248103
  86         V                 1.422032          3.284686
  87         V                 1.444250          3.251350
  88         V                 1.484716          3.060501
  89         V                 1.586765          3.089709
  90         V                 1.664826          2.575364
  91         V                 1.671597          2.670369
  92         V                 1.697182          2.833647
  93         V                 1.751018          3.150238
  94         V                 1.774557          3.256981
  95         V                 1.818407          3.167775
  96         V                 1.840561          3.178878
  97         V                 2.050959          3.218499
  98         V                 2.099607          3.298344
  99         V                 2.283330          3.400588
 100         V                 2.361502          3.445795
 101         V                 2.386120          3.639440
 Total kinetic energy from orbitals= 3.436186277286D+02
 1\1\GINC-IISERK51\SP\RHF\3-21G*\C9H10\GAUSSIAN\12-Jun-2025\0\\# hf/3-2
 1g* pop=full geom=connectivity\\Title Card Required\\0,1\C,0,-1.303423
 ,-1.336388,0.506094\C,0,-1.955906,-0.176322,0.644632\C,0,-1.801333,0.9
 95309,-0.19893\C,0,-0.321119,-1.646221,-0.51768\C,0,-0.660516,1.650513
 ,-0.443755\C,0,0.817668,-0.986191,-0.754583\C,0,0.649777,1.339854,0.09
 6637\C,0,1.314008,0.178989,-0.028333\H,0,-1.526261,-2.177302,1.18816\H
 ,0,-2.71551,-0.064957,1.439991\H,0,-2.747634,1.362544,-0.637344\H,0,-0
 .568342,-2.539973,-1.120531\H,0,-0.677238,2.55255,-1.083829\H,0,1.5008
 21,-1.341021,-1.548244\H,0,1.123291,2.184949,0.630804\C,0,2.677458,0.0
 07408,0.540479\H,0,2.686611,-0.851136,1.257466\H,0,3.409753,-0.211522,
 -0.276376\H,0,3.014821,0.924158,1.082532\\Version=EM64L-G16RevB.01\Sta
 te=1-A\HF=-344.6189496\RMSD=1.955e-09\Dipole=0.084763,-0.057894,0.0188
 202\Quadrupole=1.1082748,1.088116,-2.1963908,0.041517,-0.776694,-0.003
 0392\PG=C01 [X(C9H10)]\\@


 I KNOW YOU BELIEVE YOU UNDERSTAND WHAT YOU THINK I SAID,
 BUT I AM NOT SURE YOU REALIZE THAT WHAT YOU HEARD IS NOT WHAT I MEANT.
 Job cpu time:       0 days  0 hours  0 minutes  1.7 seconds.
 Elapsed time:       0 days  0 hours  0 minutes  1.7 seconds.
 File lengths (MBytes):  RWF=     10 Int=      0 D2E=      0 Chk=      2 Scr=      1
 Normal termination of Gaussian 16 at Thu Jun 12 23:34:02 2025.
