 Entering Gaussian System, Link 0=g16
 Input=/home/gaussian/Documents/Summer_Internship/Acid_Base_adduct/Acid/AlH3/MX3-/AlH3_planar_ion_opt.com
 Output=/home/gaussian/Documents/Summer_Internship/Acid_Base_adduct/Acid/AlH3/MX3-/AlH3_planar_ion_opt.log
 Initial command:
 /usr/local/g16/l1.exe "/home/gaussian/tmp/Gau-50076.inp" -scrdir="/home/gaussian/tmp/"
 Entering Link 1 = /usr/local/g16/l1.exe PID=     50079.
  
 Copyright (c) 1988-2017, Gaussian, Inc.  All Rights Reserved.
  
 This is part of the Gaussian(R) 16 program.  It is based on
 the Gaussian(R) 09 system (copyright 2009, Gaussian, Inc.),
 the Gaussian(R) 03 system (copyright 2003, Gaussian, Inc.),
 the Gaussian(R) 98 system (copyright 1998, Gaussian, Inc.),
 the Gaussian(R) 94 system (copyright 1995, Gaussian, Inc.),
 the Gaussian 92(TM) system (copyright 1992, Gaussian, Inc.),
 the Gaussian 90(TM) system (copyright 1990, Gaussian, Inc.),
 the Gaussian 88(TM) system (copyright 1988, Gaussian, Inc.),
 the Gaussian 86(TM) system (copyright 1986, Carnegie Mellon
 University), and the Gaussian 82(TM) system (copyright 1983,
 Carnegie Mellon University). Gaussian is a federally registered
 trademark of Gaussian, Inc.
  
 This software contains proprietary and confidential information,
 including trade secrets, belonging to Gaussian, Inc.
  
 This software is provided under written license and may be
 used, copied, transmitted, or stored only in accord with that
 written license.
  
 The following legend is applicable only to US Government
 contracts under FAR:
  
                    RESTRICTED RIGHTS LEGEND
  
 Use, reproduction and disclosure by the US Government is
 subject to restrictions as set forth in subparagraphs (a)
 and (c) of the Commercial Computer Software - Restricted
 Rights clause in FAR 52.227-19.
  
 Gaussian, Inc.
 340 Quinnipiac St., Bldg. 40, Wallingford CT 06492
  
  
 ---------------------------------------------------------------
 Warning -- This program may not be used in any manner that
 competes with the business of Gaussian, Inc. or will provide
 assistance to any competitor of Gaussian, Inc.  The licensee
 of this program is prohibited from giving any competitor of
 Gaussian, Inc. access to this program.  By using this program,
 the user acknowledges that Gaussian, Inc. is engaged in the
 business of creating and licensing software in the field of
 computational chemistry and represents and warrants to the
 licensee that it is not a competitor of Gaussian, Inc. and that
 it will not use this program in any manner prohibited above.
 ---------------------------------------------------------------
  

 Cite this work as:
 Gaussian 16, Revision B.01,
 M. J. Frisch, G. W. Trucks, H. B. Schlegel, G. E. Scuseria, 
 M. A. Robb, J. R. Cheeseman, G. Scalmani, V. Barone, 
 G. A. Petersson, H. Nakatsuji, X. Li, M. Caricato, A. V. Marenich, 
 J. Bloino, B. G. Janesko, R. Gomperts, B. Mennucci, H. P. Hratchian, 
 J. V. Ortiz, A. F. Izmaylov, J. L. Sonnenberg, D. Williams-Young, 
 F. Ding, F. Lipparini, F. Egidi, J. Goings, B. Peng, A. Petrone, 
 T. Henderson, D. Ranasinghe, V. G. Zakrzewski, J. Gao, N. Rega, 
 G. Zheng, W. Liang, M. Hada, M. Ehara, K. Toyota, R. Fukuda, 
 J. Hasegawa, M. Ishida, T. Nakajima, Y. Honda, O. Kitao, H. Nakai, 
 T. Vreven, K. Throssell, J. A. Montgomery, Jr., J. E. Peralta, 
 F. Ogliaro, M. J. Bearpark, J. J. Heyd, E. N. Brothers, K. N. Kudin, 
 V. N. Staroverov, T. A. Keith, R. Kobayashi, J. Normand, 
 K. Raghavachari, A. P. Rendell, J. C. Burant, S. S. Iyengar, 
 J. Tomasi, M. Cossi, J. M. Millam, M. Klene, C. Adamo, R. Cammi, 
 J. W. Ochterski, R. L. Martin, K. Morokuma, O. Farkas, 
 J. B. Foresman, and D. J. Fox, Gaussian, Inc., Wallingford CT, 2016.
 
 ******************************************
 Gaussian 16:  EM64L-G16RevB.01 20-Dec-2017
                14-Jun-2025 
 ******************************************
 %chk=AlH3_planar_ion_opt.chk
 -----------------------------------------------
 # opt freq uhf/3-21g pop=full geom=connectivity
 -----------------------------------------------
 1/18=20,19=15,38=1,57=2/1,3;
 2/9=110,12=2,17=6,18=5,40=1/2;
 3/5=5,11=2,25=1,30=1,71=1,116=2/1,2,3;
 4//1;
 5/5=2,38=5/2;
 6/7=3,28=1/1;
 7//1,2,3,16;
 1/18=20,19=15/3(2);
 2/9=110/2;
 99//99;
 2/9=110/2;
 3/5=5,11=2,25=1,30=1,71=1,116=2/1,2,3;
 4/5=5,16=3,69=1/1;
 5/5=2,38=5/2;
 7//1,2,3,16;
 1/18=20,19=15/3(-5);
 2/9=110/2;
 6/7=3,19=2,28=1/1;
 99/9=1/99;
 -------------------
 Title Card Required
 -------------------
 Symbolic Z-matrix:
 Charge = -1 Multiplicity = 2
 Al                    0.        0.        0.03 
 H                     0.        1.63397  -0.29 
 H                     1.41506  -0.81699  -0.29 
 H                    -1.41506  -0.81699  -0.29 
 

 GradGradGradGradGradGradGradGradGradGradGradGradGradGradGradGradGradGrad
 Berny optimization.
 Initialization pass.
                           ----------------------------
                           !    Initial Parameters    !
                           ! (Angstroms and Degrees)  !
 --------------------------                            --------------------------
 ! Name  Definition              Value          Derivative Info.                !
 --------------------------------------------------------------------------------
 ! R1    R(1,2)                  1.665          estimate D2E/DX2                !
 ! R2    R(1,3)                  1.665          estimate D2E/DX2                !
 ! R3    R(1,4)                  1.665          estimate D2E/DX2                !
 ! A1    A(2,1,3)              116.3974         estimate D2E/DX2                !
 ! A2    A(2,1,4)              116.3974         estimate D2E/DX2                !
 ! A3    A(3,1,4)              116.3973         estimate D2E/DX2                !
 ! D1    D(2,1,4,3)            143.1764         estimate D2E/DX2                !
 --------------------------------------------------------------------------------
 Trust Radius=3.00D-01 FncErr=1.00D-07 GrdErr=1.00D-07 EigMax=2.50D+02 EigMin=1.00D-04
 Number of steps in this run=     20 maximum allowed number of steps=    100.
 GradGradGradGradGradGradGradGradGradGradGradGradGradGradGradGradGradGrad

                          Input orientation:                          
 ---------------------------------------------------------------------
 Center     Atomic      Atomic             Coordinates (Angstroms)
 Number     Number       Type             X           Y           Z
 ---------------------------------------------------------------------
      1         13           0        0.000000    0.000000    0.030000
      2          1           0        0.000000    1.633971   -0.290000
      3          1           0        1.415060   -0.816986   -0.290000
      4          1           0       -1.415060   -0.816986   -0.290000
 ---------------------------------------------------------------------
                    Distance matrix (angstroms):
                    1          2          3          4
     1  Al   0.000000
     2  H    1.665011   0.000000
     3  H    1.665011   2.830121   0.000000
     4  H    1.665011   2.830121   2.830120   0.000000
 Stoichiometry    AlH3(1-,2)
 Framework group  C3[C3(Al),X(H3)]
 Deg. of freedom     2
 Full point group                 C3      NOp   3
 Largest Abelian subgroup         C1      NOp   1
 Largest concise Abelian subgroup C1      NOp   1
                         Standard orientation:                         
 ---------------------------------------------------------------------
 Center     Atomic      Atomic             Coordinates (Angstroms)
 Number     Number       Type             X           Y           Z
 ---------------------------------------------------------------------
      1         13           0       -0.000000   -0.000000    0.060000
      2          1           0        0.000000    1.633971   -0.260000
      3          1           0        1.415060   -0.816986   -0.260000
      4          1           0       -1.415060   -0.816986   -0.260000
 ---------------------------------------------------------------------
 Rotational constants (GHZ):         117.1340288         117.1340288          62.6068827
 Standard basis: 3-21G (6D, 7F)
 There are    19 symmetry adapted cartesian basis functions of A   symmetry.
 There are    19 symmetry adapted basis functions of A   symmetry.
    19 basis functions,    36 primitive gaussians,    19 cartesian basis functions
     9 alpha electrons        8 beta electrons
       nuclear repulsion energy        12.9560017063 Hartrees.
 NAtoms=    4 NActive=    4 NUniq=    2 SFac= 4.00D+00 NAtFMM=   60 NAOKFM=F Big=F
 Integral buffers will be    131072 words long.
 Raffenetti 2 integral format.
 Two-electron integral symmetry is turned on.
 One-electron integrals computed using PRISM.
 NBasis=    19 RedAO= T EigKep=  8.34D-02  NBF=    19
 NBsUse=    19 1.00D-06 EigRej= -1.00D+00 NBFU=    19
 ExpMin= 6.39D-02 ExpMax= 7.76D+02 ExpMxC= 7.76D+02 IAcc=3 IRadAn=         5 AccDes= 0.00D+00
 Harris functional with IExCor=  205 and IRadAn=       5 diagonalized for initial guess.
 HarFok:  IExCor=  205 AccDes= 0.00D+00 IRadAn=         5 IDoV= 1 UseB2=F ITyADJ=14
 ICtDFT=  3500011 ScaDFX=  1.000000  1.000000  1.000000  1.000000
 FoFCou: FMM=F IPFlag=           0 FMFlag=      100000 FMFlg1=           0
         NFxFlg=           0 DoJE=T BraDBF=F KetDBF=T FulRan=T
         wScrn=  0.000000 ICntrl=       500 IOpCl=  0 I1Cent=   200000004 NGrid=           0
         NMat0=    1 NMatS0=      1 NMatT0=    0 NMatD0=    1 NMtDS0=    0 NMtDT0=    0
 Petite list used in FoFCou.
 Initial guess orbital symmetries:
 Alpha Orbitals:
       Occupied  (A) (A) (E) (E) (A) (A) (E) (E) (A)
       Virtual   (A) (E) (E) (A) (E) (E) (A) (A) (E) (E)
 Beta  Orbitals:
       Occupied  (A) (A) (E) (E) (A) (A) (E) (E)
       Virtual   (A) (A) (E) (E) (A) (E) (E) (A) (A) (E) (E)
 The electronic state of the initial guess is 2-A.
 Initial guess <Sx>= 0.0000 <Sy>= 0.0000 <Sz>= 0.5000 <S**2>= 0.7500 S= 0.5000
 Keep R1 and R2 ints in memory in canonical form, NReq=840670.
 Requested convergence on RMS density matrix=1.00D-08 within 128 cycles.
 Requested convergence on MAX density matrix=1.00D-06.
 Requested convergence on             energy=1.00D-06.
 No special actions if energy rises.
 SCF Done:  E(UHF) =  -242.271022265     A.U. after   12 cycles
            NFock= 12  Conv=0.52D-08     -V/T= 2.0008
 <Sx>= 0.0000 <Sy>= 0.0000 <Sz>= 0.5000 <S**2>= 0.7584 S= 0.5042
 <L.S>= 0.000000000000E+00
 Annihilation of the first spin contaminant:
 S**2 before annihilation     0.7584,   after     0.7500

 **********************************************************************

            Population analysis using the SCF Density.

 **********************************************************************

 Orbital symmetries:
 Alpha Orbitals:
       Occupied  (A) (A) (A) (E) (E) (A) (E) (E) (A)
       Virtual   (E) (E) (A) (A) (A) (E) (E) (A) (E) (E)
 Beta  Orbitals:
       Occupied  (A) (A) (E) (E) (A) (A) (E) (E)
       Virtual   (A) (E) (E) (A) (A) (E) (E) (A) (A) (E) (E)
 The electronic state is 2-A.
 Alpha  occ. eigenvalues --  -57.81135  -4.62172  -2.92941  -2.92421  -2.92421
 Alpha  occ. eigenvalues --   -0.34985  -0.19277  -0.19277  -0.01246
 Alpha virt. eigenvalues --    0.35670   0.35670   0.38852   0.49637   0.56898
 Alpha virt. eigenvalues --    0.59752   0.59752   1.56563   1.58329   1.58329
  Beta  occ. eigenvalues --  -57.80820  -4.61642  -2.92145  -2.92145  -2.91688
  Beta  occ. eigenvalues --   -0.32013  -0.19630  -0.19630
  Beta virt. eigenvalues --    0.27037   0.37218   0.37218   0.41887   0.51936
  Beta virt. eigenvalues --    0.61346   0.61346   0.62382   1.56159   1.57867
  Beta virt. eigenvalues --    1.57867
     Alpha Molecular Orbital Coefficients:
                           1         2         3         4         5
                           O         O         O         O         O
     Eigenvalues --   -57.81135  -4.62172  -2.92941  -2.92421  -2.92421
   1 1   Al 1S          0.98855  -0.28424   0.00028  -0.00000  -0.00000
   2        2S          0.04408   1.01108  -0.00088   0.00000  -0.00000
   3        2PX         0.00000  -0.00000   0.00000   0.91277   0.35245
   4        2PY        -0.00000   0.00000   0.00000  -0.35245   0.91277
   5        2PZ        -0.00003   0.00129   0.97935  -0.00000  -0.00000
   6        3S         -0.01082   0.08864  -0.00046   0.00000   0.00000
   7        3PX         0.00000   0.00000   0.00000   0.08131   0.03139
   8        3PY         0.00000   0.00000   0.00000  -0.03139   0.08131
   9        3PZ         0.00013  -0.00054   0.08371  -0.00000  -0.00000
  10        4S          0.00335  -0.03165  -0.00143  -0.00000  -0.00000
  11        4PX         0.00000   0.00000  -0.00000  -0.02402  -0.00928
  12        4PY         0.00000   0.00000  -0.00000   0.00928  -0.02402
  13        4PZ         0.00018  -0.00034  -0.02875   0.00000   0.00000
  14 2   H  1S          0.00060  -0.00278   0.00094   0.00186  -0.00481
  15        2S          0.00046  -0.00056   0.00060   0.00099  -0.00256
  16 3   H  1S          0.00060  -0.00278   0.00094  -0.00510   0.00080
  17        2S          0.00046  -0.00056   0.00060  -0.00271   0.00042
  18 4   H  1S          0.00060  -0.00278   0.00094   0.00324   0.00402
  19        2S          0.00046  -0.00056   0.00060   0.00172   0.00213
                           6         7         8         9        10
                           O         O         O         O         V
     Eigenvalues --    -0.34985  -0.19277  -0.19277  -0.01246   0.35670
   1 1   Al 1S          0.04816   0.00000   0.00000   0.01171  -0.00000
   2        2S         -0.24815  -0.00000  -0.00000  -0.06659   0.00000
   3        2PX        -0.00000   0.13519   0.01392   0.00000  -0.00746
   4        2PY         0.00000   0.01392  -0.13519  -0.00000   0.00715
   5        2PZ         0.01091   0.00000   0.00000  -0.15744   0.00000
   6        3S          0.28996   0.00000  -0.00000   0.05970   0.00000
   7        3PX         0.00000  -0.23266  -0.02395  -0.00000  -0.03664
   8        3PY        -0.00000  -0.02395   0.23266   0.00000   0.03511
   9        3PZ        -0.00963  -0.00000  -0.00000   0.31170  -0.00000
  10        4S          0.37099   0.00000   0.00000   0.35652  -0.00000
  11        4PX         0.00000  -0.16135  -0.01661  -0.00000   1.08582
  12        4PY        -0.00000  -0.01661   0.16135   0.00000  -1.04069
  13        4PZ         0.00501  -0.00000  -0.00000   0.67958   0.00000
  14 2   H  1S          0.12570  -0.02222   0.21588  -0.04105   0.04985
  15        2S          0.17096  -0.04497   0.43686  -0.14420   0.66777
  16 3   H  1S          0.12570  -0.17585  -0.12719  -0.04105  -0.06997
  17        2S          0.17096  -0.35585  -0.25737  -0.14420  -0.93727
  18 4   H  1S          0.12570   0.19807  -0.08870  -0.04105   0.02012
  19        2S          0.17096   0.40082  -0.17949  -0.14420   0.26950
                          11        12        13        14        15
                           V         V         V         V         V
     Eigenvalues --     0.35670   0.38852   0.49637   0.56898   0.59752
   1 1   Al 1S          0.00000   0.01349   0.06658  -0.01224  -0.00000
   2        2S         -0.00000  -0.13808  -0.18020   0.05197   0.00000
   3        2PX        -0.00715   0.00000  -0.00000   0.00000  -0.30200
   4        2PY        -0.00746   0.00000  -0.00000  -0.00000   0.12318
   5        2PZ        -0.00000  -0.00672  -0.03516  -0.31313  -0.00000
   6        3S          0.00000  -0.29882   1.72943  -0.20021  -0.00000
   7        3PX        -0.03511  -0.00000   0.00000  -0.00000   1.31848
   8        3PY        -0.03664   0.00000   0.00000   0.00000  -0.53777
   9        3PZ         0.00000   0.07940   0.16750   1.34474   0.00000
  10        4S          0.00000   1.89664  -1.33417  -0.18981   0.00000
  11        4PX         1.04069   0.00000  -0.00000   0.00000  -0.52050
  12        4PY         1.08582  -0.00000  -0.00000  -0.00000   0.21230
  13        4PZ        -0.00000  -0.61256  -0.23513  -0.99982  -0.00000
  14 2   H  1S         -0.05201  -0.08885  -0.02000   0.01050  -0.00383
  15        2S         -0.69673  -0.82659  -0.11001   0.20106   0.20805
  16 3   H  1S         -0.01717  -0.08885  -0.02000   0.01050   0.01006
  17        2S         -0.22994  -0.82659  -0.11001   0.20106  -0.54579
  18 4   H  1S          0.06918  -0.08885  -0.02000   0.01050  -0.00622
  19        2S          0.92667  -0.82659  -0.11001   0.20106   0.33773
                          16        17        18        19
                           V         V         V         V
     Eigenvalues --     0.59752   1.56563   1.58329   1.58329
   1 1   Al 1S         -0.00000  -0.01149  -0.00000   0.00000
   2        2S         -0.00000   0.05006   0.00000  -0.00000
   3        2PX        -0.12318  -0.00000   0.07796   0.01587
   4        2PY        -0.30200  -0.00000   0.01587  -0.07796
   5        2PZ         0.00000  -0.01968  -0.00000   0.00000
   6        3S         -0.00000  -0.08425  -0.00000   0.00000
   7        3PX         0.53777   0.00000  -0.08339  -0.01698
   8        3PY         1.31848   0.00000  -0.01698   0.08339
   9        3PZ        -0.00000   0.00714   0.00000   0.00000
  10        4S          0.00000   1.07982   0.00000  -0.00000
  11        4PX        -0.21230  -0.00000   0.57464   0.11701
  12        4PY        -0.52050  -0.00000   0.11701  -0.57464
  13        4PZ         0.00000  -0.19849  -0.00000   0.00000
  14 2   H  1S          0.00940   0.79845   0.22419  -1.10095
  15        2S         -0.51010  -1.03394  -0.25258   1.24037
  16 3   H  1S         -0.00138   0.79845   0.84136   0.74463
  17        2S          0.07487  -1.03394  -0.94791  -0.83893
  18 4   H  1S         -0.00802   0.79845  -1.06554   0.35632
  19        2S          0.43523  -1.03394   1.20048  -0.40145
     Beta Molecular Orbital Coefficients:
                           1         2         3         4         5
                           O         O         O         O         O
     Eigenvalues --   -57.80820  -4.61642  -2.92145  -2.92145  -2.91688
   1 1   Al 1S          0.98855  -0.28424  -0.00000   0.00000  -0.00051
   2        2S          0.04406   1.01121   0.00000  -0.00000   0.00200
   3        2PX         0.00000  -0.00000   0.97813  -0.03183   0.00000
   4        2PY         0.00000   0.00000   0.03183   0.97813   0.00000
   5        2PZ        -0.00003  -0.00149  -0.00000  -0.00000   0.97916
   6        3S         -0.01081   0.08871  -0.00000   0.00000   0.00028
   7        3PX         0.00000   0.00000   0.08645  -0.00281   0.00000
   8        3PY         0.00000  -0.00000   0.00281   0.08645   0.00000
   9        3PZ         0.00013  -0.00059  -0.00000  -0.00000   0.08458
  10        4S          0.00336  -0.03253   0.00000  -0.00000  -0.00266
  11        4PX        -0.00000   0.00000  -0.02607   0.00085  -0.00000
  12        4PY         0.00000   0.00000  -0.00085  -0.02607  -0.00000
  13        4PZ         0.00018  -0.00038   0.00000   0.00000  -0.02958
  14 2   H  1S          0.00060  -0.00282  -0.00016  -0.00503   0.00083
  15        2S          0.00046  -0.00031  -0.00008  -0.00240   0.00091
  16 3   H  1S          0.00060  -0.00282  -0.00428   0.00266   0.00083
  17        2S          0.00046  -0.00031  -0.00204   0.00127   0.00091
  18 4   H  1S          0.00060  -0.00282   0.00444   0.00237   0.00083
  19        2S          0.00046  -0.00031   0.00212   0.00113   0.00091
                           6         7         8         9        10
                           O         O         O         V         V
     Eigenvalues --    -0.32013  -0.19630  -0.19630   0.27037   0.37218
   1 1   Al 1S          0.04449  -0.00000   0.00000   0.01073  -0.00000
   2        2S         -0.22704   0.00000  -0.00000  -0.05964   0.00000
   3        2PX        -0.00000   0.04093   0.12176  -0.00000  -0.00342
   4        2PY        -0.00000  -0.12176   0.04093  -0.00000   0.00283
   5        2PZ         0.02714   0.00000   0.00000  -0.10434  -0.00000
   6        3S          0.27245  -0.00000   0.00000   0.04686   0.00000
   7        3PX         0.00000  -0.06637  -0.19743  -0.00000  -0.06762
   8        3PY         0.00000   0.19743  -0.06637   0.00000   0.05602
   9        3PZ        -0.04902  -0.00000  -0.00000   0.08955  -0.00000
  10        4S          0.23269   0.00000   0.00000   0.19507  -0.00000
  11        4PX         0.00000  -0.03959  -0.11777  -0.00000   1.17386
  12        4PY        -0.00000   0.11777  -0.03959   0.00000  -0.97245
  13        4PZ        -0.01129  -0.00000  -0.00000   0.91158   0.00000
  14 2   H  1S          0.13855   0.21670  -0.07285  -0.01949   0.04325
  15        2S          0.23751   0.44794  -0.15058  -0.01920   0.59180
  16 3   H  1S          0.13855  -0.17144  -0.15125  -0.01949  -0.06684
  17        2S          0.23751  -0.35438  -0.31264  -0.01920  -0.91456
  18 4   H  1S          0.13855  -0.04526   0.22409  -0.01949   0.02359
  19        2S          0.23751  -0.09357   0.46322  -0.01920   0.32276
                          11        12        13        14        15
                           V         V         V         V         V
     Eigenvalues --     0.37218   0.41887   0.51936   0.61346   0.61346
   1 1   Al 1S          0.00000   0.01922   0.06858  -0.00000  -0.00000
   2        2S         -0.00000  -0.16775  -0.19152   0.00000   0.00000
   3        2PX        -0.00283   0.00000  -0.00000   0.00288  -0.32832
   4        2PY        -0.00342  -0.00000  -0.00000  -0.32832  -0.00288
   5        2PZ         0.00000  -0.00766   0.03164  -0.00000  -0.00000
   6        3S          0.00000  -0.25860   1.74028   0.00000  -0.00000
   7        3PX        -0.05602  -0.00000   0.00000  -0.01252   1.42578
   8        3PY        -0.06762   0.00000   0.00000   1.42578   0.01252
   9        3PZ         0.00000   0.03704  -0.13048   0.00000   0.00000
  10        4S          0.00000   1.95617  -1.26540  -0.00000   0.00000
  11        4PX         0.97245  -0.00000  -0.00000   0.00448  -0.51020
  12        4PY         1.17386  -0.00000  -0.00000  -0.51020  -0.00448
  13        4PZ        -0.00000  -0.44503   0.02075  -0.00000  -0.00000
  14 2   H  1S         -0.05221  -0.09108  -0.01801   0.01456   0.00013
  15        2S         -0.71437  -0.82223  -0.14299  -0.57475  -0.00505
  16 3   H  1S         -0.01135  -0.09108  -0.01801  -0.00739   0.01254
  17        2S         -0.15533  -0.82223  -0.14299   0.29175  -0.49522
  18 4   H  1S          0.06356  -0.09108  -0.01801  -0.00717  -0.01267
  19        2S          0.86969  -0.82223  -0.14299   0.28300   0.50027
                          16        17        18        19
                           V         V         V         V
     Eigenvalues --     0.62382   1.56159   1.57867   1.57867
   1 1   Al 1S          0.00612  -0.01159  -0.00000   0.00000
   2        2S         -0.01038   0.04960   0.00000  -0.00000
   3        2PX         0.00000  -0.00000   0.08119   0.00001
   4        2PY         0.00000  -0.00000   0.00001  -0.08119
   5        2PZ        -0.33453  -0.01978  -0.00000   0.00000
   6        3S          0.18684  -0.09086  -0.00000   0.00000
   7        3PX        -0.00000   0.00000  -0.09014  -0.00001
   8        3PY        -0.00000   0.00000  -0.00001   0.09014
   9        3PZ         1.38238   0.00662   0.00000   0.00000
  10        4S         -0.33542   1.10064   0.00000  -0.00000
  11        4PX         0.00000  -0.00000   0.59065   0.00004
  12        4PY         0.00000  -0.00000   0.00004  -0.59065
  13        4PZ        -0.92864  -0.19844  -0.00000   0.00000
  14 2   H  1S         -0.00021   0.79701   0.00008  -1.12146
  15        2S          0.11891  -1.04278  -0.00009   1.27114
  16 3   H  1S         -0.00021   0.79701   0.97117   0.56080
  17        2S          0.11891  -1.04278  -1.10080  -0.63565
  18 4   H  1S         -0.00021   0.79701  -0.97125   0.56066
  19        2S          0.11891  -1.04278   1.10089  -0.63549
     Alpha Density Matrix:
                           1         2         3         4         5
   1 1   Al 1S          1.06047
   2        2S         -0.25654   1.09024
   3        2PX         0.00000  -0.00000   0.97584
   4        2PY         0.00000  -0.00000  -0.00000   0.97584
   5        2PZ        -0.00144   0.00823   0.00000   0.00000   0.98403
   6        3S         -0.02123   0.01322   0.00000   0.00000  -0.00658
   7        3PX         0.00000   0.00000   0.05349  -0.00000  -0.00000
   8        3PY         0.00000   0.00000  -0.00000   0.05349  -0.00000
   9        3PZ         0.00349  -0.01898  -0.00000  -0.00000   0.03280
  10        4S          0.03435  -0.14766   0.00000  -0.00000  -0.05353
  11        4PX         0.00000   0.00000  -0.04724  -0.00000   0.00000
  12        4PY         0.00000   0.00000  -0.00000  -0.04724  -0.00000
  13        4PZ         0.00847  -0.04681   0.00000   0.00000  -0.13510
  14 2   H  1S          0.00696  -0.03124   0.00000  -0.03454   0.00875
  15        2S          0.00716  -0.03336   0.00000  -0.06237   0.02516
  16 3   H  1S          0.00696  -0.03124  -0.02992   0.01727   0.00875
  17        2S          0.00716  -0.03336  -0.05401   0.03118   0.02516
  18 4   H  1S          0.00696  -0.03124   0.02992   0.01727   0.00875
  19        2S          0.00716  -0.03336   0.05401   0.03118   0.02516
                           6         7         8         9        10
   6        3S          0.09561
   7        3PX        -0.00000   0.06230
   8        3PY        -0.00000   0.00000   0.06230
   9        3PZ         0.01573   0.00000  -0.00000   0.10426
  10        4S          0.12601  -0.00000   0.00000   0.10745   0.26576
  11        4PX        -0.00000   0.03569  -0.00000  -0.00000  -0.00000
  12        4PY        -0.00000   0.00000   0.03569   0.00000   0.00000
  13        4PZ         0.04200   0.00000   0.00000   0.20937   0.24419
  14 2   H  1S          0.03374  -0.00000   0.05031  -0.01393   0.03209
  15        2S          0.04091  -0.00000   0.10248  -0.04654   0.01203
  16 3   H  1S          0.03374   0.04357  -0.02515  -0.01393   0.03209
  17        2S          0.04091   0.08875  -0.05124  -0.04654   0.01203
  18 4   H  1S          0.03374  -0.04357  -0.02515  -0.01393   0.03209
  19        2S          0.04091  -0.08875  -0.05124  -0.04654   0.01203
                          11        12        13        14        15
  11        4PX         0.02697
  12        4PY        -0.00000   0.02697
  13        4PZ        -0.00000   0.00000   0.46268
  14 2   H  1S         -0.00000   0.03533  -0.02729   0.06462
  15        2S         -0.00000   0.07130  -0.09716   0.12274   0.24290
  16 3   H  1S          0.03060  -0.01767  -0.02729  -0.00607  -0.02025
  17        2S          0.06175  -0.03565  -0.09716  -0.02025  -0.04642
  18 4   H  1S         -0.03060  -0.01767  -0.02729  -0.00607  -0.02025
  19        2S         -0.06175  -0.03565  -0.09716  -0.02025  -0.04642
                          16        17        18        19
  16 3   H  1S          0.06462
  17        2S          0.12274   0.24290
  18 4   H  1S         -0.00607  -0.02025   0.06462
  19        2S         -0.02025  -0.04642   0.12274   0.24290
     Beta Density Matrix:
                           1         2         3         4         5
   1 1   Al 1S          1.06001
   2        2S         -0.25398   1.07605
   3        2PX        -0.00000  -0.00000   0.97425
   4        2PY         0.00000  -0.00000   0.00000   0.97425
   5        2PZ         0.00110  -0.00571  -0.00000   0.00000   0.95950
   6        3S         -0.02378   0.02737  -0.00000   0.00000   0.00754
   7        3PX         0.00000   0.00000   0.05789   0.00000  -0.00000
   8        3PY        -0.00000   0.00000   0.00000   0.05789  -0.00000
   9        3PZ        -0.00192   0.01071  -0.00000   0.00000   0.08149
  10        4S          0.02292  -0.08558   0.00000  -0.00000   0.00376
  11        4PX        -0.00000   0.00000  -0.04149  -0.00000   0.00000
  12        4PY         0.00000   0.00000  -0.00000  -0.04149   0.00000
  13        4PZ        -0.00020   0.00212  -0.00000   0.00000  -0.02927
  14 2   H  1S          0.00756  -0.03428   0.00000  -0.03429   0.00458
  15        2S          0.01111  -0.05422   0.00000  -0.06306   0.00734
  16 3   H  1S          0.00756  -0.03428  -0.02970   0.01715   0.00458
  17        2S          0.01111  -0.05422  -0.05461   0.03153   0.00734
  18 4   H  1S          0.00756  -0.03428   0.02970   0.01715   0.00458
  19        2S          0.01111  -0.05422   0.05461   0.03153   0.00734
                           6         7         8         9        10
   6        3S          0.08221
   7        3PX        -0.00000   0.05086
   8        3PY        -0.00000   0.00000   0.05086
   9        3PZ        -0.01338   0.00000  -0.00000   0.00956
  10        4S          0.06047  -0.00000   0.00000  -0.01161   0.05522
  11        4PX         0.00000   0.02362  -0.00000   0.00000  -0.00000
  12        4PY        -0.00000   0.00000   0.02362  -0.00000   0.00000
  13        4PZ        -0.00312   0.00000   0.00000  -0.00195  -0.00254
  14 2   H  1S          0.03749  -0.00000   0.04718  -0.00672   0.03233
  15        2S          0.06468  -0.00000   0.09822  -0.01156   0.05527
  16 3   H  1S          0.03749   0.04086  -0.02359  -0.00672   0.03233
  17        2S          0.06468   0.08506  -0.04911  -0.01156   0.05527
  18 4   H  1S          0.03749  -0.04086  -0.02359  -0.00672   0.03233
  19        2S          0.06468  -0.08506  -0.04911  -0.01156   0.05527
                          11        12        13        14        15
  11        4PX         0.01612
  12        4PY        -0.00000   0.01612
  13        4PZ         0.00000   0.00000   0.00100
  14 2   H  1S         -0.00000   0.02854  -0.00159   0.07150
  15        2S         -0.00000   0.05878  -0.00271   0.14096   0.27974
  16 3   H  1S          0.02471  -0.01427  -0.00159  -0.00694  -0.02112
  17        2S          0.05090  -0.02939  -0.00271  -0.02112  -0.05526
  18 4   H  1S         -0.02471  -0.01427  -0.00159  -0.00694  -0.02112
  19        2S         -0.05090  -0.02939  -0.00271  -0.02112  -0.05526
                          16        17        18        19
  16 3   H  1S          0.07150
  17        2S          0.14096   0.27974
  18 4   H  1S         -0.00694  -0.02112   0.07150
  19        2S         -0.02112  -0.05526   0.14096   0.27974
    Full Mulliken population analysis:
                           1         2         3         4         5
   1 1   Al 1S          2.12049
   2        2S         -0.12305   2.16629
   3        2PX         0.00000   0.00000   1.95009
   4        2PY         0.00000   0.00000  -0.00000   1.95009
   5        2PZ         0.00000   0.00000   0.00000   0.00000   1.94353
   6        3S         -0.00055   0.01038   0.00000   0.00000   0.00000
   7        3PX         0.00000   0.00000   0.02692   0.00000   0.00000
   8        3PY         0.00000   0.00000  -0.00000   0.02692   0.00000
   9        3PZ         0.00000   0.00000   0.00000   0.00000   0.02762
  10        4S          0.00145  -0.05091   0.00000   0.00000   0.00000
  11        4PX         0.00000   0.00000  -0.00521  -0.00000   0.00000
  12        4PY         0.00000   0.00000   0.00000  -0.00521   0.00000
  13        4PZ         0.00000   0.00000   0.00000   0.00000  -0.00966
  14 2   H  1S          0.00000  -0.00020   0.00000  -0.00037  -0.00001
  15        2S          0.00017  -0.00740   0.00000  -0.00599  -0.00030
  16 3   H  1S          0.00000  -0.00020  -0.00028  -0.00009  -0.00001
  17        2S          0.00017  -0.00740  -0.00450  -0.00150  -0.00030
  18 4   H  1S          0.00000  -0.00020  -0.00028  -0.00009  -0.00001
  19        2S          0.00017  -0.00740  -0.00450  -0.00150  -0.00030
                           6         7         8         9        10
   6        3S          0.17783
   7        3PX         0.00000   0.11317
   8        3PY         0.00000  -0.00000   0.11317
   9        3PZ         0.00000   0.00000   0.00000   0.11382
  10        4S          0.15399   0.00000   0.00000   0.00000   0.32098
  11        4PX         0.00000   0.03940   0.00000   0.00000   0.00000
  12        4PY         0.00000   0.00000   0.03940   0.00000   0.00000
  13        4PZ         0.00000   0.00000   0.00000   0.13777   0.00000
  14 2   H  1S          0.01100   0.00000   0.02864   0.00119   0.01257
  15        2S          0.04347  -0.00000   0.10065   0.00571   0.03451
  16 3   H  1S          0.01100   0.02148   0.00716   0.00119   0.01257
  17        2S          0.04347   0.07549   0.02516   0.00571   0.03451
  18 4   H  1S          0.01100   0.02148   0.00716   0.00119   0.01257
  19        2S          0.04347   0.07549   0.02516   0.00571   0.03451
                          11        12        13        14        15
  11        4PX         0.04309
  12        4PY        -0.00000   0.04309
  13        4PZ         0.00000   0.00000   0.46368
  14 2   H  1S          0.00000   0.01810   0.00160   0.13612
  15        2S          0.00000   0.07719   0.01161   0.17032   0.52264
  16 3   H  1S          0.01358   0.00453   0.00160  -0.00000  -0.00036
  17        2S          0.05790   0.01930   0.01161  -0.00036  -0.00740
  18 4   H  1S          0.01358   0.00453   0.00160  -0.00000  -0.00036
  19        2S          0.05790   0.01930   0.01161  -0.00036  -0.00740
                          16        17        18        19
  16 3   H  1S          0.13612
  17        2S          0.17032   0.52264
  18 4   H  1S         -0.00000  -0.00036   0.13612
  19        2S         -0.00036  -0.00740   0.17032   0.52264
     Gross orbital populations:
                         Total     Alpha     Beta      Spin
   1 1   Al 1S          1.99884   0.99945   0.99939   0.00006
   2        2S          1.97991   0.99082   0.98909   0.00173
   3        2PX         1.96224   0.98124   0.98100   0.00024
   4        2PY         1.96224   0.98124   0.98100   0.00024
   5        2PZ         1.96053   0.98328   0.97725   0.00603
   6        3S          0.50506   0.26895   0.23611   0.03284
   7        3PX         0.37342   0.19819   0.17522   0.02297
   8        3PY         0.37342   0.19819   0.17522   0.02297
   9        3PZ         0.29989   0.26736   0.03252   0.23484
  10        4S          0.56674   0.37574   0.19100   0.18474
  11        4PX         0.22022   0.12639   0.09383   0.03257
  12        4PY         0.22022   0.12639   0.09383   0.03257
  13        4PZ         0.63142   0.63222  -0.00080   0.63302
  14 2   H  1S          0.37824   0.18183   0.19640  -0.01457
  15        2S          0.93705   0.44167   0.49537  -0.05370
  16 3   H  1S          0.37824   0.18183   0.19640  -0.01457
  17        2S          0.93705   0.44167   0.49537  -0.05370
  18 4   H  1S          0.37824   0.18183   0.19640  -0.01457
  19        2S          0.93705   0.44167   0.49537  -0.05370
          Condensed to atoms (all electrons):
               1          2          3          4
     1  Al  12.057784   0.332118   0.332118   0.332118
     2  H    0.332118   0.999402  -0.008117  -0.008117
     3  H    0.332118  -0.008117   0.999402  -0.008117
     4  H    0.332118  -0.008117  -0.008117   0.999402
          Atomic-Atomic Spin Densities.
               1          2          3          4
     1  Al   1.211784  -0.002323  -0.002323  -0.002323
     2  H   -0.002323  -0.067266   0.000659   0.000659
     3  H   -0.002323   0.000659  -0.067266   0.000659
     4  H   -0.002323   0.000659   0.000659  -0.067266
 Mulliken charges and spin densities:
               1          2
     1  Al  -0.054139   1.204814
     2  H   -0.315287  -0.068271
     3  H   -0.315287  -0.068271
     4  H   -0.315287  -0.068271
 Sum of Mulliken charges =  -1.00000   1.00000
 Mulliken charges and spin densities with hydrogens summed into heavy atoms:
               1          2
     1  Al  -1.000000   1.000000
 Electronic spatial extent (au):  <R**2>=             86.0361
 Charge=             -1.0000 electrons
 Dipole moment (field-independent basis, Debye):
    X=             -0.0000    Y=             -0.0000    Z=             -0.2945  Tot=              0.2945
 Quadrupole moment (field-independent basis, Debye-Ang):
   XX=            -26.0287   YY=            -26.0287   ZZ=            -23.9935
   XY=              0.0000   XZ=              0.0000   YZ=             -0.0000
 Traceless Quadrupole moment (field-independent basis, Debye-Ang):
   XX=             -0.6784   YY=             -0.6784   ZZ=              1.3568
   XY=              0.0000   XZ=              0.0000   YZ=             -0.0000
 Octapole moment (field-independent basis, Debye-Ang**2):
  XXX=             -0.0000  YYY=             -5.5555  ZZZ=             -5.6636  XYY=              0.0000
  XXY=              5.5555  XXZ=              0.5296  XZZ=              0.0000  YZZ=             -0.0000
  YYZ=              0.5296  XYZ=             -0.0000
 Hexadecapole moment (field-independent basis, Debye-Ang**3):
 XXXX=            -93.4560 YYYY=            -93.4560 ZZZZ=            -70.9730 XXXY=              0.0000
 XXXZ=              0.0000 YYYX=              0.0000 YYYZ=              1.3946 ZZZX=              0.0000
 ZZZY=             -0.0000 XXYY=            -31.1520 XXZZ=            -26.0582 YYZZ=            -26.0582
 XXYZ=             -1.3946 YYXZ=              0.0000 ZZXY=              0.0000
 N-N= 1.295600170630D+01 E-N=-6.086672685429D+02  KE= 2.420691169956D+02
 Orbital energies and kinetic energies (alpha):
                                 1                 2
   1         O               -57.811348         78.666431
   2         O                -4.621721         11.080471
   3         O                -2.929406          9.739436
   4         O                -2.924210          9.724382
   5         O                -2.924210          9.724382
   6         O                -0.349846          0.703758
   7         O                -0.192772          0.579367
   8         O                -0.192772          0.579367
   9         O                -0.012464          0.493364
  10         V                 0.356698          0.323345
  11         V                 0.356698          0.323345
  12         V                 0.388515          0.508638
  13         V                 0.496365          1.276836
  14         V                 0.568984          1.461753
  15         V                 0.597521          1.545874
  16         V                 0.597521          1.545874
  17         V                 1.565631          2.279285
  18         V                 1.583288          2.341260
  19         V                 1.583288          2.341260
 Orbital energies and kinetic energies (beta):
                                 1                 2
   1         O               -57.808204         78.667560
   2         O                -4.616424         11.081488
   3         O                -2.921453          9.727705
   4         O                -2.921453          9.727705
   5         O                -2.916879          9.736376
   6         O                -0.320127          0.678132
   7         O                -0.196304          0.579597
   8         O                -0.196304          0.579597
   9         V                 0.270373          0.299266
  10         V                 0.372178          0.307182
  11         V                 0.372178          0.307182
  12         V                 0.418870          0.549484
  13         V                 0.519362          1.338912
  14         V                 0.613457          1.564646
  15         V                 0.613457          1.564646
  16         V                 0.623820          1.588710
  17         V                 1.561595          2.270044
  18         V                 1.578669          2.335098
  19         V                 1.578669          2.335098
 Total kinetic energy from orbitals= 2.420691169956D+02
                          Isotropic Fermi Contact Couplings
        Atom                 a.u.       MegaHertz       Gauss      10(-4) cm-1
     1  Al(27)             0.21127     246.25678      87.87054      82.14242
     2  H(1)              -0.01184     -52.94503     -18.89210     -17.66056
     3  H(1)              -0.01184     -52.94503     -18.89210     -17.66056
     4  H(1)              -0.01184     -52.94503     -18.89210     -17.66056
 --------------------------------------------------------
       Center         ----  Spin Dipole Couplings  ----
                      3XX-RR        3YY-RR        3ZZ-RR
 --------------------------------------------------------
     1   Atom       -0.263434     -0.263434      0.526869
     2   Atom       -0.011851      0.005831      0.006020
     3   Atom        0.001411     -0.007430      0.006020
     4   Atom        0.001411     -0.007430      0.006020
 --------------------------------------------------------
                        XY            XZ            YZ
 --------------------------------------------------------
     1   Atom       -0.000000     -0.000000     -0.000000
     2   Atom       -0.000000     -0.000000     -0.005770
     3   Atom       -0.007656     -0.004997      0.002885
     4   Atom        0.007656      0.004997      0.002885
 --------------------------------------------------------


 ---------------------------------------------------------------------------------
              Anisotropic Spin Dipole Couplings in Principal Axis System
 ---------------------------------------------------------------------------------

       Atom             a.u.   MegaHertz   Gauss  10(-4) cm-1        Axes

              Baa    -0.2634   -36.653   -13.079   -12.226  0.9767  0.2145  0.0000
     1 Al(27) Bbb    -0.2634   -36.653   -13.079   -12.226 -0.2145  0.9767  0.0000
              Bcc     0.5269    73.307    26.158    24.452 -0.0000 -0.0000  1.0000
 
              Baa    -0.0119    -6.323    -2.256    -2.109  1.0000  0.0000  0.0000
     2 H(1)   Bbb     0.0002     0.083     0.029     0.028 -0.0000  0.7129  0.7013
              Bcc     0.0117     6.240     2.227     2.082  0.0000 -0.7013  0.7129
 
              Baa    -0.0119    -6.323    -2.256    -2.109  0.5000  0.8660 -0.0000
     3 H(1)   Bbb     0.0002     0.083     0.029     0.028  0.6174 -0.3564  0.7013
              Bcc     0.0117     6.240     2.227     2.082 -0.6073  0.3507  0.7129
 
              Baa    -0.0119    -6.323    -2.256    -2.109 -0.5000  0.8660 -0.0000
     4 H(1)   Bbb     0.0002     0.083     0.029     0.028 -0.6174 -0.3564  0.7013
              Bcc     0.0117     6.240     2.227     2.082  0.6073  0.3507  0.7129
 

 ---------------------------------------------------------------------------------

 Calling FoFJK, ICntrl=      2127 FMM=F ISym2X=1 I1Cent= 0 IOpClX= 1 NMat=1 NMatS=1 NMatT=0.
 ***** Axes restored to original set *****
 -------------------------------------------------------------------
 Center     Atomic                   Forces (Hartrees/Bohr)
 Number     Number              X              Y              Z
 -------------------------------------------------------------------
      1       13          -0.000000000   -0.000000000    0.011364638
      2        1           0.000000000   -0.005007826   -0.003788213
      3        1          -0.004336904    0.002503913   -0.003788213
      4        1           0.004336904    0.002503913   -0.003788213
 -------------------------------------------------------------------
 Cartesian Forces:  Max     0.011364638 RMS     0.004540940

 GradGradGradGradGradGradGradGradGradGradGradGradGradGradGradGradGradGrad
 Berny optimization.
 FormGI is forming the generalized inverse of G from B-inverse, IUseBI=4.
 Internal  Forces:  Max     0.012666753 RMS     0.006003035
 Search for a local minimum.
 Step number   1 out of a maximum of   20
 All quantities printed in internal units (Hartrees-Bohrs-Radians)
 Mixed Optimization -- RFO/linear search
 Second derivative matrix not updated -- first step.
 The second derivative matrix:
                          R1        R2        R3        A1        A2
           R1           0.11281
           R2           0.00000   0.11281
           R3           0.00000   0.00000   0.11281
           A1           0.00000   0.00000   0.00000   0.16000
           A2           0.00000   0.00000   0.00000   0.00000   0.16000
           A3           0.00000   0.00000   0.00000   0.00000   0.00000
           D1           0.00000   0.00000   0.00000   0.00000   0.00000
                          A3        D1
           A3           0.16000
           D1           0.00000   0.00230
 ITU=  0
     Eigenvalues ---    0.01999   0.11281   0.11281   0.11281   0.16000
     Eigenvalues ---    0.16000
 RFO step:  Lambda=-7.19888286D-03 EMin= 1.99872245D-02
 Linear search not attempted -- first point.
 Iteration  1 RMS(Cart)=  0.09258568 RMS(Int)=  0.09724765
 Iteration  2 RMS(Cart)=  0.07685079 RMS(Int)=  0.03031688
 Iteration  3 RMS(Cart)=  0.01666693 RMS(Int)=  0.02618774
 Iteration  4 RMS(Cart)=  0.00080639 RMS(Int)=  0.02618155
 Iteration  5 RMS(Cart)=  0.00005135 RMS(Int)=  0.02618153
 Iteration  6 RMS(Cart)=  0.00000324 RMS(Int)=  0.02618153
 Iteration  7 RMS(Cart)=  0.00000020 RMS(Int)=  0.02618153
 ClnCor:  largest displacement from symmetrization is 2.11D-02 for atom     3.
 Variable       Old X    -DE/DX   Delta X   Delta X   Delta X     New X
                                 (Linear)    (Quad)   (Total)
    R1        3.14641  -0.00419   0.00000  -0.03489  -0.03807   3.10834
    R2        3.14641  -0.00419   0.00000  -0.03489  -0.03807   3.10834
    R3        3.14641  -0.00419   0.00000  -0.03489  -0.03807   3.10834
    A1        2.03152   0.00028   0.00000  -0.09012  -0.12859   1.90292
    A2        2.03152  -0.00442   0.00000  -0.09995  -0.12859   1.90292
    A3        2.03152  -0.00442   0.00000  -0.09995  -0.12859   1.90292
    D1        2.49890  -0.01267   0.00000  -0.46593  -0.42311   2.07579
         Item               Value     Threshold  Converged?
 Maximum Force            0.012667     0.000450     NO 
 RMS     Force            0.006003     0.000300     NO 
 Maximum Displacement     0.339340     0.001800     NO 
 RMS     Displacement     0.183872     0.001200     NO 
 Predicted change in Energy=-2.519264D-03
 GradGradGradGradGradGradGradGradGradGradGradGradGradGradGradGradGradGrad

                          Input orientation:                          
 ---------------------------------------------------------------------
 Center     Atomic      Atomic             Coordinates (Angstroms)
 Number     Number       Type             X           Y           Z
 ---------------------------------------------------------------------
      1         13           0        0.000000   -0.000000    0.209571
      2          1           0        0.005590    1.546544   -0.350560
      3          1           0        1.336551   -0.778114   -0.350560
      4          1           0       -1.342142   -0.768431   -0.350560
 ---------------------------------------------------------------------
                    Distance matrix (angstroms):
                    1          2          3          4
     1  Al   0.000000
     2  H    1.644864   0.000000
     3  H    1.644864   2.678711   0.000000
     4  H    1.644864   2.678711   2.678711   0.000000
 Stoichiometry    AlH3(1-,2)
 Framework group  C3V[C3(Al),3SGV(H)]
 Deg. of freedom     2
 Full point group                 C3V     NOp   6
 Omega: Change in point group or standard orientation.

 Old FWG=C03  [C3(Al1),X(H3)]
 New FWG=C03V [C3(Al1),3SGV(H1)]
 Largest Abelian subgroup         CS      NOp   2
 Largest concise Abelian subgroup CS      NOp   2
                         Standard orientation:                         
 ---------------------------------------------------------------------
 Center     Atomic      Atomic             Coordinates (Angstroms)
 Number     Number       Type             X           Y           Z
 ---------------------------------------------------------------------
      1         13           0        0.000000    0.000000    0.105025
      2          1           0       -0.000000    1.546554   -0.455107
      3          1           0        1.339355   -0.773277   -0.455107
      4          1           0       -1.339355   -0.773277   -0.455107
 ---------------------------------------------------------------------
 Rotational constants (GHZ):         113.0895641         113.0895641          69.8844402
 Standard basis: 3-21G (6D, 7F)
 There are    14 symmetry adapted cartesian basis functions of A'  symmetry.
 There are     5 symmetry adapted cartesian basis functions of A"  symmetry.
 There are    14 symmetry adapted basis functions of A'  symmetry.
 There are     5 symmetry adapted basis functions of A"  symmetry.
    19 basis functions,    36 primitive gaussians,    19 cartesian basis functions
     9 alpha electrons        8 beta electrons
       nuclear repulsion energy        13.1395289921 Hartrees.
 NAtoms=    4 NActive=    4 NUniq=    2 SFac= 4.00D+00 NAtFMM=   60 NAOKFM=F Big=F
 Integral buffers will be    131072 words long.
 Raffenetti 2 integral format.
 Two-electron integral symmetry is turned on.
 One-electron integrals computed using PRISM.
 NBasis=    19 RedAO= T EigKep=  6.93D-02  NBF=    14     5
 NBsUse=    19 1.00D-06 EigRej= -1.00D+00 NBFU=    14     5
 Initial guess from the checkpoint file:  "AlH3_planar_ion_opt.chk"
 B after Tr=    -0.000000   -0.000000    0.000000
         Rot=    1.000000    0.000000   -0.000000    0.000000 Ang=   0.00 deg.
 Initial guess orbital symmetries:
 Alpha Orbitals:
       Occupied  (A1) (A1) (A1) (E) (E) (A1) (E) (E) (A1)
       Virtual   (E) (E) (A1) (A1) (A1) (E) (E) (A1) (E) (E)
 Beta  Orbitals:
       Occupied  (A1) (A1) (E) (E) (A1) (A1) (E) (E)
       Virtual   (A1) (E) (E) (A1) (A1) (E) (E) (A1) (A1) (E) (E)
 Initial guess <Sx>= 0.0000 <Sy>= 0.0000 <Sz>= 0.5000 <S**2>= 0.7575 S= 0.5037
 ExpMin= 6.39D-02 ExpMax= 7.76D+02 ExpMxC= 7.76D+02 IAcc=3 IRadAn=         5 AccDes= 0.00D+00
 Harris functional with IExCor=  205 and IRadAn=       5 diagonalized for initial guess.
 HarFok:  IExCor=  205 AccDes= 0.00D+00 IRadAn=         5 IDoV= 1 UseB2=F ITyADJ=14
 ICtDFT=  3500011 ScaDFX=  1.000000  1.000000  1.000000  1.000000
 FoFCou: FMM=F IPFlag=           0 FMFlag=      100000 FMFlg1=           0
         NFxFlg=           0 DoJE=T BraDBF=F KetDBF=T FulRan=T
         wScrn=  0.000000 ICntrl=       500 IOpCl=  0 I1Cent=   200000004 NGrid=           0
         NMat0=    1 NMatS0=      1 NMatT0=    0 NMatD0=    1 NMtDS0=    0 NMtDT0=    0
 Petite list used in FoFCou.
 Keep R1 and R2 ints in memory in symmetry-blocked form, NReq=824541.
 Requested convergence on RMS density matrix=1.00D-08 within 128 cycles.
 Requested convergence on MAX density matrix=1.00D-06.
 Requested convergence on             energy=1.00D-06.
 No special actions if energy rises.
 An orbital has undefined symmetry, so N**3 symmetry is turned off.
 SCF Done:  E(UHF) =  -242.273649459     A.U. after   13 cycles
            NFock= 13  Conv=0.23D-08     -V/T= 2.0006
 <Sx>= 0.0000 <Sy>= 0.0000 <Sz>= 0.5000 <S**2>= 0.7536 S= 0.5018
 <L.S>= 0.000000000000E+00
 Annihilation of the first spin contaminant:
 S**2 before annihilation     0.7536,   after     0.7500
 Calling FoFJK, ICntrl=      2127 FMM=F ISym2X=1 I1Cent= 0 IOpClX= 1 NMat=1 NMatS=1 NMatT=0.
 ***** Axes restored to original set *****
 -------------------------------------------------------------------
 Center     Atomic                   Forces (Hartrees/Bohr)
 Number     Number              X              Y              Z
 -------------------------------------------------------------------
      1       13          -0.000000000    0.000000000   -0.002310731
      2        1           0.000014987    0.004146004    0.000770244
      3        1           0.003583051   -0.002085981    0.000770244
      4        1          -0.003598038   -0.002060023    0.000770244
 -------------------------------------------------------------------
 Cartesian Forces:  Max     0.004146004 RMS     0.002211486

 GradGradGradGradGradGradGradGradGradGradGradGradGradGradGradGradGradGrad
 Berny optimization.
 Using GEDIIS/GDIIS optimizer.
 FormGI is forming the generalized inverse of G from B-inverse, IUseBI=4.
 Internal  Forces:  Max     0.004941710 RMS     0.003604896
 Search for a local minimum.
 Step number   2 out of a maximum of   20
 All quantities printed in internal units (Hartrees-Bohrs-Radians)
 Mixed Optimization -- RFO/linear search
 Update second derivatives using D2CorX and points    1    2
 DE= -2.63D-03 DEPred=-2.52D-03 R= 1.04D+00
 TightC=F SS=  1.41D+00  RLast= 4.83D-01 DXNew= 5.0454D-01 1.4480D+00
 Trust test= 1.04D+00 RLast= 4.83D-01 DXMaxT set to 5.05D-01
 The second derivative matrix:
                          R1        R2        R3        A1        A2
           R1           0.11657
           R2           0.00377   0.11657
           R3           0.00377   0.00377   0.11657
           A1          -0.00979  -0.00979  -0.00979   0.11212
           A2          -0.00396  -0.00396  -0.00396  -0.04767   0.11834
           A3          -0.00396  -0.00396  -0.00396  -0.04767  -0.04166
           D1           0.01270   0.01270   0.01270  -0.00180   0.01133
                          A3        D1
           A3           0.11834
           D1           0.01133   0.03185
 ITU=  1  0
 Use linear search instead of GDIIS.
     Eigenvalues ---    0.03906   0.11281   0.11281   0.12471   0.15200
     Eigenvalues ---    0.16000
 RFO step:  Lambda=-8.13754743D-05 EMin= 3.90562043D-02
 Quartic linear search produced a step of -0.23683.
 Iteration  1 RMS(Cart)=  0.04820243 RMS(Int)=  0.00484749
 Iteration  2 RMS(Cart)=  0.00139205 RMS(Int)=  0.00465021
 Iteration  3 RMS(Cart)=  0.00001270 RMS(Int)=  0.00465020
 Iteration  4 RMS(Cart)=  0.00000014 RMS(Int)=  0.00465020
 ClnCor:  largest displacement from symmetrization is 6.93D-03 for atom     4.
 Variable       Old X    -DE/DX   Delta X   Delta X   Delta X     New X
                                 (Linear)    (Quad)   (Total)
    R1        3.10834   0.00364   0.00902   0.01335   0.02036   3.12870
    R2        3.10834   0.00364   0.00902   0.01335   0.02036   3.12870
    R3        3.10834   0.00364   0.00902   0.01335   0.02036   3.12870
    A1        1.90292   0.00056   0.03046  -0.01038   0.03374   1.93667
    A2        1.90292   0.00364   0.03046   0.00191   0.03374   1.93667
    A3        1.90292   0.00364   0.03046   0.00191   0.03374   1.93667
    D1        2.07579   0.00494   0.10021  -0.01031   0.08585   2.16164
         Item               Value     Threshold  Converged?
 Maximum Force            0.004942     0.000450     NO 
 RMS     Force            0.003605     0.000300     NO 
 Maximum Displacement     0.071664     0.001800     NO 
 RMS     Displacement     0.047148     0.001200     NO 
 Predicted change in Energy=-5.836419D-04
 GradGradGradGradGradGradGradGradGradGradGradGradGradGradGradGradGradGrad

                          Input orientation:                          
 ---------------------------------------------------------------------
 Center     Atomic      Atomic             Coordinates (Angstroms)
 Number     Number       Type             X           Y           Z
 ---------------------------------------------------------------------
      1         13           0       -0.000000   -0.000000    0.171648
      2          1           0        0.005694    1.575177   -0.338181
      3          1           0        1.361296   -0.792520   -0.338181
      4          1           0       -1.366990   -0.782658   -0.338181
 ---------------------------------------------------------------------
                    Distance matrix (angstroms):
                    1          2          3          4
     1  Al   0.000000
     2  H    1.655639   0.000000
     3  H    1.655639   2.728304   0.000000
     4  H    1.655639   2.728304   2.728304   0.000000
 Stoichiometry    AlH3(1-,2)
 Framework group  C3V[C3(Al),3SGV(H)]
 Deg. of freedom     2
 Full point group                 C3V     NOp   6
 Largest Abelian subgroup         CS      NOp   2
 Largest concise Abelian subgroup CS      NOp   2
                         Standard orientation:                         
 ---------------------------------------------------------------------
 Center     Atomic      Atomic             Coordinates (Angstroms)
 Number     Number       Type             X           Y           Z
 ---------------------------------------------------------------------
      1         13           0        0.000000    0.000000    0.095593
      2          1           0       -0.000000    1.575187   -0.414236
      3          1           0        1.364152   -0.787594   -0.414236
      4          1           0       -1.364152   -0.787594   -0.414236
 ---------------------------------------------------------------------
 Rotational constants (GHZ):         113.3737960         113.3737960          67.3668717
 Standard basis: 3-21G (6D, 7F)
 There are    14 symmetry adapted cartesian basis functions of A'  symmetry.
 There are     5 symmetry adapted cartesian basis functions of A"  symmetry.
 There are    14 symmetry adapted basis functions of A'  symmetry.
 There are     5 symmetry adapted basis functions of A"  symmetry.
    19 basis functions,    36 primitive gaussians,    19 cartesian basis functions
     9 alpha electrons        8 beta electrons
       nuclear repulsion energy        13.0470984371 Hartrees.
 NAtoms=    4 NActive=    4 NUniq=    2 SFac= 4.00D+00 NAtFMM=   60 NAOKFM=F Big=F
 Integral buffers will be    131072 words long.
 Raffenetti 2 integral format.
 Two-electron integral symmetry is turned on.
 One-electron integrals computed using PRISM.
 NBasis=    19 RedAO= T EigKep=  7.33D-02  NBF=    14     5
 NBsUse=    19 1.00D-06 EigRej= -1.00D+00 NBFU=    14     5
 Initial guess from the checkpoint file:  "AlH3_planar_ion_opt.chk"
 B after Tr=     0.000000    0.000000   -0.000000
         Rot=    1.000000    0.000000   -0.000000   -0.000000 Ang=   0.00 deg.
 Initial guess orbital symmetries:
 Alpha Orbitals:
       Occupied  (A1) (A1) (A1) (E) (E) (A1) (E) (E) (A1)
       Virtual   (E) (E) (A1) (A1) (A1) (E) (E) (E) (E) (A1)
 Beta  Orbitals:
       Occupied  (A1) (A1) (E) (E) (A1) (A1) (E) (E)
       Virtual   (A1) (E) (E) (A1) (A1) (E) (E) (A1) (E) (E) (A1)
 Initial guess <Sx>= 0.0000 <Sy>= 0.0000 <Sz>= 0.5000 <S**2>= 0.7537 S= 0.5019
 ExpMin= 6.39D-02 ExpMax= 7.76D+02 ExpMxC= 7.76D+02 IAcc=3 IRadAn=         5 AccDes= 0.00D+00
 Harris functional with IExCor=  205 and IRadAn=       5 diagonalized for initial guess.
 HarFok:  IExCor=  205 AccDes= 0.00D+00 IRadAn=         5 IDoV= 1 UseB2=F ITyADJ=14
 ICtDFT=  3500011 ScaDFX=  1.000000  1.000000  1.000000  1.000000
 FoFCou: FMM=F IPFlag=           0 FMFlag=      100000 FMFlg1=           0
         NFxFlg=           0 DoJE=T BraDBF=F KetDBF=T FulRan=T
         wScrn=  0.000000 ICntrl=       500 IOpCl=  0 I1Cent=   200000004 NGrid=           0
         NMat0=    1 NMatS0=      1 NMatT0=    0 NMatD0=    1 NMtDS0=    0 NMtDT0=    0
 Petite list used in FoFCou.
 Keep R1 and R2 ints in memory in symmetry-blocked form, NReq=824541.
 Requested convergence on RMS density matrix=1.00D-08 within 128 cycles.
 Requested convergence on MAX density matrix=1.00D-06.
 Requested convergence on             energy=1.00D-06.
 No special actions if energy rises.
 An orbital has undefined symmetry, so N**3 symmetry is turned off.
 SCF Done:  E(UHF) =  -242.274119834     A.U. after   10 cycles
            NFock= 10  Conv=0.68D-08     -V/T= 2.0007
 <Sx>= 0.0000 <Sy>= 0.0000 <Sz>= 0.5000 <S**2>= 0.7542 S= 0.5021
 <L.S>= 0.000000000000E+00
 Annihilation of the first spin contaminant:
 S**2 before annihilation     0.7542,   after     0.7500
 Calling FoFJK, ICntrl=      2127 FMM=F ISym2X=1 I1Cent= 0 IOpClX= 1 NMat=1 NMatS=1 NMatT=0.
 ***** Axes restored to original set *****
 -------------------------------------------------------------------
 Center     Atomic                   Forces (Hartrees/Bohr)
 Number     Number              X              Y              Z
 -------------------------------------------------------------------
      1       13           0.000000000    0.000000000    0.000328690
      2        1           0.000001714    0.000474112   -0.000109563
      3        1           0.000409736   -0.000238540   -0.000109563
      4        1          -0.000411450   -0.000235572   -0.000109563
 -------------------------------------------------------------------
 Cartesian Forces:  Max     0.000474112 RMS     0.000261152

 GradGradGradGradGradGradGradGradGradGradGradGradGradGradGradGradGradGrad
 Berny optimization.
 Using GEDIIS/GDIIS optimizer.
 FormGI is forming the generalized inverse of G from B-inverse, IUseBI=4.
 Internal  Forces:  Max     0.000484815 RMS     0.000321644
 Search for a local minimum.
 Step number   3 out of a maximum of   20
 All quantities printed in internal units (Hartrees-Bohrs-Radians)
 Mixed Optimization -- En-DIIS/RFO-DIIS
 Update second derivatives using D2CorX and points    1    2    3
 DE= -4.70D-04 DEPred=-5.84D-04 R= 8.06D-01
 TightC=F SS=  1.41D+00  RLast= 1.10D-01 DXNew= 8.4853D-01 3.2904D-01
 Trust test= 8.06D-01 RLast= 1.10D-01 DXMaxT set to 5.05D-01
 The second derivative matrix:
                          R1        R2        R3        A1        A2
           R1           0.11317
           R2           0.00036   0.11317
           R3           0.00036   0.00036   0.11317
           A1          -0.00626  -0.00626  -0.00626   0.11215
           A2           0.00221   0.00221   0.00221  -0.04531   0.12801
           A3           0.00221   0.00221   0.00221  -0.04531  -0.03199
           D1           0.01042   0.01042   0.01042   0.00246   0.02019
                          A3        D1
           A3           0.12801
           D1           0.02019   0.03212
 ITU=  1  1  0
 Use linear search instead of GDIIS.
     Eigenvalues ---    0.05000   0.11281   0.11281   0.11364   0.16000
     Eigenvalues ---    0.16740
 RFO step:  Lambda=-3.99721207D-06 EMin= 5.00041874D-02
 Quartic linear search produced a step of  0.05212.
 Iteration  1 RMS(Cart)=  0.00280874 RMS(Int)=  0.00006301
 Iteration  2 RMS(Cart)=  0.00000037 RMS(Int)=  0.00006301
 ClnCor:  largest displacement from symmetrization is 1.71D-04 for atom     4.
 Variable       Old X    -DE/DX   Delta X   Delta X   Delta X     New X
                                 (Linear)    (Quad)   (Total)
    R1        3.12870   0.00048   0.00106   0.00319   0.00430   3.13301
    R2        3.12870   0.00048   0.00106   0.00319   0.00430   3.13301
    R3        3.12870   0.00048   0.00106   0.00319   0.00430   3.13301
    A1        1.93667   0.00001   0.00176  -0.00128   0.00023   1.93690
    A2        1.93667   0.00007   0.00176  -0.00154   0.00023   1.93690
    A3        1.93667   0.00007   0.00176  -0.00154   0.00023   1.93690
    D1        2.16164   0.00010   0.00447  -0.00386   0.00064   2.16228
         Item               Value     Threshold  Converged?
 Maximum Force            0.000485     0.000450     NO 
 RMS     Force            0.000322     0.000300     NO 
 Maximum Displacement     0.004333     0.001800     NO 
 RMS     Displacement     0.002843     0.001200     NO 
 Predicted change in Energy=-3.096304D-06
 GradGradGradGradGradGradGradGradGradGradGradGradGradGradGradGradGradGrad

                          Input orientation:                          
 ---------------------------------------------------------------------
 Center     Atomic      Atomic             Coordinates (Angstroms)
 Number     Number       Type             X           Y           Z
 ---------------------------------------------------------------------
      1         13           0       -0.000000   -0.000000    0.171883
      2          1           0        0.005702    1.577470   -0.338253
      3          1           0        1.363278   -0.793673   -0.338253
      4          1           0       -1.368980   -0.783797   -0.338253
 ---------------------------------------------------------------------
                    Distance matrix (angstroms):
                    1          2          3          4
     1  Al   0.000000
     2  H    1.657915   0.000000
     3  H    1.657915   2.732276   0.000000
     4  H    1.657915   2.732276   2.732276   0.000000
 Stoichiometry    AlH3(1-,2)
 Framework group  C3V[C3(Al),3SGV(H)]
 Deg. of freedom     2
 Full point group                 C3V     NOp   6
 Largest Abelian subgroup         CS      NOp   2
 Largest concise Abelian subgroup CS      NOp   2
                         Standard orientation:                         
 ---------------------------------------------------------------------
 Center     Atomic      Atomic             Coordinates (Angstroms)
 Number     Number       Type             X           Y           Z
 ---------------------------------------------------------------------
      1         13           0        0.000000    0.000000    0.095651
      2          1           0       -0.000000    1.577480   -0.414486
      3          1           0        1.366138   -0.788740   -0.414486
      4          1           0       -1.366138   -0.788740   -0.414486
 ---------------------------------------------------------------------
 Rotational constants (GHZ):         113.0749805         113.0749805          67.1711701
 Standard basis: 3-21G (6D, 7F)
 There are    14 symmetry adapted cartesian basis functions of A'  symmetry.
 There are     5 symmetry adapted cartesian basis functions of A"  symmetry.
 There are    14 symmetry adapted basis functions of A'  symmetry.
 There are     5 symmetry adapted basis functions of A"  symmetry.
    19 basis functions,    36 primitive gaussians,    19 cartesian basis functions
     9 alpha electrons        8 beta electrons
       nuclear repulsion energy        13.0291390736 Hartrees.
 NAtoms=    4 NActive=    4 NUniq=    2 SFac= 4.00D+00 NAtFMM=   60 NAOKFM=F Big=F
 Integral buffers will be    131072 words long.
 Raffenetti 2 integral format.
 Two-electron integral symmetry is turned on.
 One-electron integrals computed using PRISM.
 NBasis=    19 RedAO= T EigKep=  7.34D-02  NBF=    14     5
 NBsUse=    19 1.00D-06 EigRej= -1.00D+00 NBFU=    14     5
 Initial guess from the checkpoint file:  "AlH3_planar_ion_opt.chk"
 B after Tr=    -0.000000    0.000000    0.000000
         Rot=    1.000000    0.000000   -0.000000    0.000000 Ang=   0.00 deg.
 Initial guess orbital symmetries:
 Alpha Orbitals:
       Occupied  (A1) (A1) (A1) (E) (E) (A1) (E) (E) (A1)
       Virtual   (E) (E) (A1) (A1) (A1) (E) (E) (A1) (E) (E)
 Beta  Orbitals:
       Occupied  (A1) (A1) (E) (E) (A1) (A1) (E) (E)
       Virtual   (A1) (E) (E) (A1) (A1) (E) (E) (A1) (A1) (E) (E)
 Initial guess <Sx>= 0.0000 <Sy>= 0.0000 <Sz>= 0.5000 <S**2>= 0.7542 S= 0.5021
 Keep R1 and R2 ints in memory in symmetry-blocked form, NReq=824541.
 Requested convergence on RMS density matrix=1.00D-08 within 128 cycles.
 Requested convergence on MAX density matrix=1.00D-06.
 Requested convergence on             energy=1.00D-06.
 No special actions if energy rises.
 An orbital has undefined symmetry, so N**3 symmetry is turned off.
 SCF Done:  E(UHF) =  -242.274122847     A.U. after    9 cycles
            NFock=  9  Conv=0.56D-08     -V/T= 2.0007
 <Sx>= 0.0000 <Sy>= 0.0000 <Sz>= 0.5000 <S**2>= 0.7542 S= 0.5021
 <L.S>= 0.000000000000E+00
 Annihilation of the first spin contaminant:
 S**2 before annihilation     0.7542,   after     0.7500
 Calling FoFJK, ICntrl=      2127 FMM=F ISym2X=1 I1Cent= 0 IOpClX= 1 NMat=1 NMatS=1 NMatT=0.
 ***** Axes restored to original set *****
 -------------------------------------------------------------------
 Center     Atomic                   Forces (Hartrees/Bohr)
 Number     Number              X              Y              Z
 -------------------------------------------------------------------
      1       13          -0.000000000   -0.000000000   -0.000022485
      2        1          -0.000000085   -0.000023481    0.000007495
      3        1          -0.000020292    0.000011814    0.000007495
      4        1           0.000020377    0.000011667    0.000007495
 -------------------------------------------------------------------
 Cartesian Forces:  Max     0.000023481 RMS     0.000013929

 GradGradGradGradGradGradGradGradGradGradGradGradGradGradGradGradGradGrad
 Berny optimization.
 Using GEDIIS/GDIIS optimizer.
 FormGI is forming the generalized inverse of G from B-inverse, IUseBI=4.
 Internal  Forces:  Max     0.000024648 RMS     0.000016136
 Search for a local minimum.
 Step number   4 out of a maximum of   20
 All quantities printed in internal units (Hartrees-Bohrs-Radians)
 Mixed Optimization -- En-DIIS/RFO-DIIS
 Swapping is turned off.
 Update second derivatives using D2CorX and points    1    2    3    4
 DE= -3.01D-06 DEPred=-3.10D-06 R= 9.73D-01
 TightC=F SS=  1.41D+00  RLast= 7.49D-03 DXNew= 8.4853D-01 2.2466D-02
 Trust test= 9.73D-01 RLast= 7.49D-03 DXMaxT set to 5.05D-01
 The second derivative matrix:
                          R1        R2        R3        A1        A2
           R1           0.11428
           R2           0.00147   0.11428
           R3           0.00147   0.00147   0.11428
           A1          -0.00001  -0.00001  -0.00001   0.11102
           A2           0.00339   0.00339   0.00339  -0.04574   0.12472
           A3           0.00339   0.00339   0.00339  -0.04574  -0.03528
           D1           0.00569   0.00569   0.00569   0.00349   0.01776
                          A3        D1
           A3           0.12472
           D1           0.01776   0.03129
 ITU=  1  1  1  0
     Eigenvalues ---    0.04806   0.11281   0.11281   0.11795   0.16000
     Eigenvalues ---    0.16168
 En-DIIS/RFO-DIIS/Sim-DIIS IScMMF=       -3 using points:     4    3
 RFO step:  Lambda=-1.55918319D-08.
 DidBck=F Rises=F RFO-DIIS coefs:    0.95161    0.04839
 Iteration  1 RMS(Cart)=  0.00012654 RMS(Int)=  0.00000000
 Iteration  2 RMS(Cart)=  0.00000000 RMS(Int)=  0.00000000
 ClnCor:  largest displacement from symmetrization is 1.42D-06 for atom     4.
 Variable       Old X    -DE/DX   Delta X   Delta X   Delta X     New X
                                 (Linear)    (Quad)   (Total)
    R1        3.13301  -0.00002  -0.00021  -0.00001  -0.00022   3.13279
    R2        3.13301  -0.00002  -0.00021  -0.00001  -0.00022   3.13279
    R3        3.13301  -0.00002  -0.00021  -0.00001  -0.00022   3.13279
    A1        1.93690  -0.00000  -0.00001   0.00003   0.00002   1.93693
    A2        1.93690  -0.00000  -0.00001   0.00004   0.00002   1.93693
    A3        1.93690  -0.00000  -0.00001   0.00004   0.00002   1.93693
    D1        2.16228  -0.00000  -0.00003   0.00010   0.00007   2.16235
         Item               Value     Threshold  Converged?
 Maximum Force            0.000025     0.000450     YES
 RMS     Force            0.000016     0.000300     YES
 Maximum Displacement     0.000180     0.001800     YES
 RMS     Displacement     0.000127     0.001200     YES
 Predicted change in Energy=-7.933237D-09
 Optimization completed.
    -- Stationary point found.
                           ----------------------------
                           !   Optimized Parameters   !
                           ! (Angstroms and Degrees)  !
 --------------------------                            --------------------------
 ! Name  Definition              Value          Derivative Info.                !
 --------------------------------------------------------------------------------
 ! R1    R(1,2)                  1.6579         -DE/DX =    0.0                 !
 ! R2    R(1,3)                  1.6579         -DE/DX =    0.0                 !
 ! R3    R(1,4)                  1.6579         -DE/DX =    0.0                 !
 ! A1    A(2,1,3)              110.9764         -DE/DX =    0.0                 !
 ! A2    A(2,1,4)              110.9764         -DE/DX =    0.0                 !
 ! A3    A(3,1,4)              110.9764         -DE/DX =    0.0                 !
 ! D1    D(2,1,4,3)            123.8895         -DE/DX =    0.0                 !
 --------------------------------------------------------------------------------
 GradGradGradGradGradGradGradGradGradGradGradGradGradGradGradGradGradGrad

                          Input orientation:                          
 ---------------------------------------------------------------------
 Center     Atomic      Atomic             Coordinates (Angstroms)
 Number     Number       Type             X           Y           Z
 ---------------------------------------------------------------------
      1         13           0       -0.000000   -0.000000    0.171883
      2          1           0        0.005702    1.577470   -0.338253
      3          1           0        1.363278   -0.793673   -0.338253
      4          1           0       -1.368980   -0.783797   -0.338253
 ---------------------------------------------------------------------
                    Distance matrix (angstroms):
                    1          2          3          4
     1  Al   0.000000
     2  H    1.657915   0.000000
     3  H    1.657915   2.732276   0.000000
     4  H    1.657915   2.732276   2.732276   0.000000
 Stoichiometry    AlH3(1-,2)
 Framework group  C3V[C3(Al),3SGV(H)]
 Deg. of freedom     2
 Full point group                 C3V     NOp   6
 Largest Abelian subgroup         CS      NOp   2
 Largest concise Abelian subgroup CS      NOp   2
                         Standard orientation:                         
 ---------------------------------------------------------------------
 Center     Atomic      Atomic             Coordinates (Angstroms)
 Number     Number       Type             X           Y           Z
 ---------------------------------------------------------------------
      1         13           0        0.000000    0.000000    0.095651
      2          1           0       -0.000000    1.577480   -0.414486
      3          1           0        1.366138   -0.788740   -0.414486
      4          1           0       -1.366138   -0.788740   -0.414486
 ---------------------------------------------------------------------
 Rotational constants (GHZ):         113.0749805         113.0749805          67.1711701

 **********************************************************************

            Population analysis using the SCF Density.

 **********************************************************************

 Orbital symmetries:
 Alpha Orbitals:
       Occupied  (A1) (A1) (A1) (E) (E) (A1) (E) (E) (A1)
       Virtual   (E) (E) (A1) (A1) (A1) (E) (E) (A1) (E) (E)
 Beta  Orbitals:
       Occupied  (A1) (A1) (E) (E) (A1) (A1) (E) (E)
       Virtual   (A1) (E) (E) (A1) (A1) (E) (E) (A1) (A1) (E) (E)
 The electronic state is 2-A1.
 Alpha  occ. eigenvalues --  -57.80703  -4.61797  -2.92512  -2.92010  -2.92010
 Alpha  occ. eigenvalues --   -0.34950  -0.18781  -0.18781  -0.03127
 Alpha virt. eigenvalues --    0.34774   0.34774   0.42381   0.49599   0.58484
 Alpha virt. eigenvalues --    0.59634   0.59634   1.58538   1.58799   1.58799
  Beta  occ. eigenvalues --  -57.80377  -4.61225  -2.91738  -2.91738  -2.91274
  Beta  occ. eigenvalues --   -0.31863  -0.18508  -0.18508
  Beta virt. eigenvalues --    0.26163   0.36819   0.36819   0.44529   0.52599
  Beta virt. eigenvalues --    0.61485   0.61485   0.62949   1.58556   1.58778
  Beta virt. eigenvalues --    1.58778
     Alpha Molecular Orbital Coefficients:
                           1         2         3         4         5
                        (A1)--O   (A1)--O   (A1)--O   (E)--O    (E)--O
     Eigenvalues --   -57.80703  -4.61797  -2.92512  -2.92010  -2.92010
   1 1   Al 1S          0.98855  -0.28423   0.00093   0.00000   0.00000
   2        2S          0.04409   1.01105  -0.00315  -0.00000  -0.00000
   3        2PX        -0.00000  -0.00000  -0.00000   0.97844  -0.00384
   4        2PY        -0.00000   0.00000  -0.00000   0.00384   0.97844
   5        2PZ        -0.00004   0.00366   0.97919   0.00000   0.00000
   6        3S         -0.01082   0.08862  -0.00035   0.00000   0.00000
   7        3PX         0.00000   0.00000  -0.00000   0.08715  -0.00034
   8        3PY        -0.00000  -0.00000  -0.00000   0.00034   0.08715
   9        3PZ         0.00024  -0.00062   0.08436   0.00000   0.00000
  10        4S          0.00310  -0.03085  -0.00337  -0.00000  -0.00000
  11        4PX        -0.00000  -0.00000   0.00000  -0.02617   0.00010
  12        4PY         0.00000  -0.00000   0.00000  -0.00010  -0.02617
  13        4PZ         0.00035  -0.00094  -0.02813  -0.00000  -0.00000
  14 2   H  1S          0.00059  -0.00271   0.00140  -0.00002  -0.00506
  15        2S          0.00063  -0.00110   0.00153  -0.00001  -0.00245
  16 3   H  1S          0.00059  -0.00271   0.00140  -0.00437   0.00255
  17        2S          0.00063  -0.00110   0.00153  -0.00212   0.00124
  18 4   H  1S          0.00059  -0.00271   0.00140   0.00439   0.00251
  19        2S          0.00063  -0.00110   0.00153   0.00213   0.00122
                           6         7         8         9        10
                        (A1)--O   (E)--O    (E)--O    (A1)--O   (E)--V
     Eigenvalues --    -0.34950  -0.18781  -0.18781  -0.03127   0.34774
   1 1   Al 1S          0.04800  -0.00000  -0.00000   0.01591   0.00000
   2        2S         -0.24717   0.00000   0.00000  -0.08929   0.00000
   3        2PX        -0.00000  -0.00495  -0.13400   0.00000   0.00236
   4        2PY        -0.00000  -0.13400   0.00495   0.00000  -0.01969
   5        2PZ         0.01724  -0.00000   0.00000  -0.15715  -0.00000
   6        3S          0.28934  -0.00000  -0.00000   0.08578   0.00000
   7        3PX         0.00000   0.00843   0.22823  -0.00000   0.00234
   8        3PY         0.00000   0.22823  -0.00843  -0.00000  -0.01948
   9        3PZ        -0.01427   0.00000   0.00000   0.31217   0.00000
  10        4S          0.36231  -0.00000  -0.00000   0.44400  -0.00000
  11        4PX         0.00000   0.00595   0.16114  -0.00000  -0.17232
  12        4PY        -0.00000   0.16114  -0.00595  -0.00000   1.43726
  13        4PZ         0.00852  -0.00000  -0.00000   0.60478   0.00000
  14 2   H  1S          0.12737   0.21937  -0.00810  -0.05492  -0.07326
  15        2S          0.17301   0.44767  -0.01654  -0.16852  -0.93213
  16 3   H  1S          0.12737  -0.10267   0.19403  -0.05492   0.04424
  17        2S          0.17301  -0.20951   0.39596  -0.16852   0.56285
  18 4   H  1S          0.12737  -0.11670  -0.18593  -0.05492   0.02902
  19        2S          0.17301  -0.23816  -0.37943  -0.16852   0.36928
                          11        12        13        14        15
                        (E)--V    (A1)--V   (A1)--V   (A1)--V   (E)--V
     Eigenvalues --     0.34774   0.42381   0.49599   0.58484   0.59634
   1 1   Al 1S         -0.00000   0.00688   0.06443  -0.02201   0.00000
   2        2S          0.00000  -0.11435  -0.17439   0.09389   0.00000
   3        2PX        -0.01969   0.00000  -0.00000  -0.00000  -0.32429
   4        2PY        -0.00236   0.00000   0.00000  -0.00000   0.03480
   5        2PZ        -0.00000  -0.03468  -0.07223  -0.30564  -0.00000
   6        3S          0.00000  -0.42221   1.67524  -0.36238  -0.00000
   7        3PX        -0.01948  -0.00000  -0.00000   0.00000   1.41312
   8        3PY        -0.00234  -0.00000   0.00000   0.00000  -0.15165
   9        3PZ         0.00000   0.18970   0.33051   1.31503   0.00000
  10        4S         -0.00000   1.99590  -1.28023  -0.37985   0.00000
  11        4PX         1.43726   0.00000   0.00000  -0.00000  -0.61897
  12        4PY         0.17232   0.00000  -0.00000  -0.00000   0.06643
  13        4PZ         0.00000  -0.93939  -0.41926  -0.77583  -0.00000
  14 2   H  1S         -0.00878  -0.07877  -0.02185   0.02123  -0.00116
  15        2S         -0.11176  -0.84590  -0.11541   0.38879   0.05400
[...]
     3   Atom       -0.006365     -0.005580      0.003222
     4   Atom        0.006365      0.005580      0.003222
 --------------------------------------------------------


 ---------------------------------------------------------------------------------
              Anisotropic Spin Dipole Couplings in Principal Axis System
 ---------------------------------------------------------------------------------

       Atom             a.u.   MegaHertz   Gauss  10(-4) cm-1        Axes

              Baa    -0.2594   -36.090   -12.878   -12.038 -0.1548  0.9880  0.0000
     1 Al(27) Bbb    -0.2594   -36.090   -12.878   -12.038  0.9880  0.1548  0.0000
              Bcc     0.5188    72.181    25.756    24.077 -0.0000 -0.0000  1.0000
 
              Baa    -0.0106    -5.639    -2.012    -1.881  1.0000  0.0000  0.0000
     2 H(1)   Bbb    -0.0013    -0.673    -0.240    -0.224 -0.0000  0.7668  0.6418
              Bcc     0.0118     6.312     2.252     2.105  0.0000 -0.6418  0.7668
 
              Baa    -0.0106    -5.639    -2.012    -1.881  0.5000  0.8660  0.0000
     3 H(1)   Bbb    -0.0013    -0.673    -0.240    -0.224  0.6641 -0.3834  0.6418
              Bcc     0.0118     6.312     2.252     2.105 -0.5558  0.3209  0.7668
 
              Baa    -0.0106    -5.639    -2.012    -1.881 -0.5000  0.8660  0.0000
     4 H(1)   Bbb    -0.0013    -0.673    -0.240    -0.224  0.6641  0.3834 -0.6418
              Bcc     0.0118     6.312     2.252     2.105  0.5558  0.3209  0.7668
 

 ---------------------------------------------------------------------------------

 Calling FoFJK, ICntrl=    100127 FMM=F ISym2X=1 I1Cent= 0 IOpClX= 1 NMat=1 NMatS=1 NMatT=0.
 Full mass-weighted force constant matrix:
 Low frequencies ---   -0.0042   -0.0016    0.0016   14.3474   14.4838   14.4839
 Low frequencies ---  694.5180  800.5548  800.5548
 Diagonal vibrational polarizability:
       14.7310482      14.7310487      24.9217190
 Diagonal vibrational hyperpolarizability:
        0.0000000      35.3394507    -179.5360166
 Harmonic frequencies (cm**-1), IR intensities (KM/Mole), Raman scattering
 activities (A**4/AMU), depolarization ratios for plane and unpolarized
 incident light, reduced masses (AMU), force constants (mDyne/A),
 and normal coordinates:
                      1                      2                      3
                     A1                      E                      E
 Frequencies --    694.5180               800.5548               800.5548
 Red. masses --      1.1080                 1.0477                 1.0477
 Frc consts  --      0.3149                 0.3956                 0.3956
 IR Inten    --    434.9567               233.4401               233.4401
 Raman Activ --     35.0513                29.4511                29.4511
 Depolar (P) --      0.7215                 0.7500                 0.7500
 Depolar (U) --      0.8382                 0.8571                 0.8571
  Atom  AN      X      Y      Z        X      Y      Z        X      Y      Z
     1  13    -0.00  -0.00  -0.06    -0.00  -0.04   0.00    -0.04   0.00  -0.00
     2   1     0.00   0.16   0.55     0.00  -0.08  -0.23     0.78   0.00   0.00
     3   1     0.14  -0.08   0.55     0.37   0.56   0.11     0.13   0.37  -0.20
     4   1    -0.14  -0.08   0.55    -0.37   0.56   0.11     0.13  -0.37   0.20
                      4                      5                      6
                      E                      E                     A1
 Frequencies --   1717.8454              1717.8454              1758.6762
 Red. masses --      1.0537                 1.0537                 1.0145
 Frc consts  --      1.8321                 1.8321                 1.8488
 IR Inten    --    540.4737               540.4738                75.2734
 Raman Activ --     78.2522                78.2522               132.3077
 Depolar (P) --      0.7500                 0.7500                 0.2273
 Depolar (U) --      0.8571                 0.8571                 0.3704
  Atom  AN      X      Y      Z        X      Y      Z        X      Y      Z
     1  13    -0.00  -0.04   0.00    -0.04   0.00  -0.00    -0.00   0.00   0.02
     2   1    -0.00   0.78  -0.24    -0.03  -0.00   0.00    -0.00   0.56  -0.14
     3   1    -0.35   0.17   0.12     0.58  -0.35  -0.21     0.48  -0.28  -0.14
     4   1     0.35   0.17   0.12     0.58   0.35   0.21    -0.48  -0.28  -0.14

 -------------------
 - Thermochemistry -
 -------------------
 Temperature   298.150 Kelvin.  Pressure   1.00000 Atm.
 Atom     1 has atomic number 13 and mass  26.98154
 Atom     2 has atomic number  1 and mass   1.00783
 Atom     3 has atomic number  1 and mass   1.00783
 Atom     4 has atomic number  1 and mass   1.00783
 Molecular mass:    30.00502 amu.
 Principal axes and moments of inertia in atomic units:
                           1         2         3
     Eigenvalues --    15.96057  15.96057  26.86779
           X            0.24254   0.97014   0.00000
           Y            0.97014  -0.24254   0.00000
           Z            0.00000   0.00000   1.00000
 This molecule is an oblate symmetric top.
 Rotational symmetry number  3.
 Rotational temperatures (Kelvin)      5.42674     5.42674     3.22371
 Rotational constants (GHZ):         113.07498   113.07498    67.17117
 Zero-point vibrational energy      44800.1 (Joules/Mol)
                                   10.70748 (Kcal/Mol)
 Vibrational temperatures:    999.26  1151.82  1151.82  2471.60  2471.60
          (Kelvin)           2530.34
 
 Zero-point correction=                           0.017063 (Hartree/Particle)
 Thermal correction to Energy=                    0.020173
 Thermal correction to Enthalpy=                  0.021117
 Thermal correction to Gibbs Free Energy=        -0.003894
 Sum of electronic and zero-point Energies=           -242.257059
 Sum of electronic and thermal Energies=              -242.253950
 Sum of electronic and thermal Enthalpies=            -242.253006
 Sum of electronic and thermal Free Energies=         -242.278017
 
                     E (Thermal)             CV                S
                      KCal/Mol        Cal/Mol-Kelvin    Cal/Mol-Kelvin
 Total                   12.659              8.199             52.641
 Electronic               0.000              0.000              1.377
 Translational            0.889              2.981             36.130
 Rotational               0.889              2.981             14.394
 Vibrational             10.881              2.238              0.740
                       Q            Log10(Q)             Ln(Q)
 Total Bot       0.618374D+02          1.791251          4.124508
 Total V=0       0.436408D+10          9.639893         22.196673
 Vib (Bot)       0.153316D-07         -7.814412        -17.993349
 Vib (V=0)       0.108200D+01          0.034229          0.078815
 Electronic      0.200000D+01          0.301030          0.693147
 Translational   0.646018D+07          6.810245         15.681168
 Rotational      0.312168D+03          2.494389          5.743542
 ***** Axes restored to original set *****
 -------------------------------------------------------------------
 Center     Atomic                   Forces (Hartrees/Bohr)
 Number     Number              X              Y              Z
 -------------------------------------------------------------------
      1       13          -0.000000000   -0.000000000   -0.000022485
      2        1          -0.000000085   -0.000023481    0.000007495
      3        1          -0.000020292    0.000011814    0.000007495
      4        1           0.000020377    0.000011667    0.000007495
 -------------------------------------------------------------------
 Cartesian Forces:  Max     0.000023481 RMS     0.000013929
 FormGI is forming the generalized inverse of G from B-inverse, IUseBI=4.

 GradGradGradGradGradGradGradGradGradGradGradGradGradGradGradGradGradGrad
 Berny optimization.
 Internal  Forces:  Max     0.000024648 RMS     0.000016136
 Search for a local minimum.
 Step number   1 out of a maximum of    2
 All quantities printed in internal units (Hartrees-Bohrs-Radians)
 Second derivative matrix not updated -- analytic derivatives used.
 The second derivative matrix:
                          R1        R2        R3        A1        A2
           R1           0.11046
           R2           0.00314   0.11046
           R3           0.00314   0.00314   0.11046
           A1           0.00248   0.00248  -0.00389   0.03889
           A2           0.00580  -0.00215   0.00668  -0.02812   0.08176
           A3          -0.00215   0.00580   0.00668  -0.02812  -0.00883
           D1           0.00582   0.00582   0.00459   0.00972   0.01618
                          A3        D1
           A3           0.08176
           D1           0.01618   0.03581
 ITU=  0
     Eigenvalues ---    0.04412   0.08742   0.09477   0.11049   0.11051
     Eigenvalues ---    0.12229
 Angle between quadratic step and forces=  11.84 degrees.
 Linear search not attempted -- first point.
 Iteration  1 RMS(Cart)=  0.00012718 RMS(Int)=  0.00000000
 Iteration  2 RMS(Cart)=  0.00000000 RMS(Int)=  0.00000000
 ClnCor:  largest displacement from symmetrization is 4.90D-10 for atom     4.
 Variable       Old X    -DE/DX   Delta X   Delta X   Delta X     New X
                                 (Linear)    (Quad)   (Total)
    R1        3.13301  -0.00002   0.00000  -0.00022  -0.00022   3.13279
    R2        3.13301  -0.00002   0.00000  -0.00022  -0.00022   3.13279
    R3        3.13301  -0.00002   0.00000  -0.00022  -0.00022   3.13279
    A1        1.93690  -0.00000   0.00000   0.00002   0.00002   1.93693
    A2        1.93690  -0.00000   0.00000   0.00002   0.00002   1.93693
    A3        1.93690  -0.00000   0.00000   0.00002   0.00002   1.93693
    D1        2.16228  -0.00000   0.00000   0.00006   0.00006   2.16234
         Item               Value     Threshold  Converged?
 Maximum Force            0.000025     0.000450     YES
 RMS     Force            0.000016     0.000300     YES
 Maximum Displacement     0.000181     0.001800     YES
 RMS     Displacement     0.000127     0.001200     YES
 Predicted change in Energy=-7.958753D-09
 Optimization completed.
    -- Stationary point found.
                           ----------------------------
                           !   Optimized Parameters   !
                           ! (Angstroms and Degrees)  !
 --------------------------                            --------------------------
 ! Name  Definition              Value          Derivative Info.                !
 --------------------------------------------------------------------------------
 ! R1    R(1,2)                  1.6579         -DE/DX =    0.0                 !
 ! R2    R(1,3)                  1.6579         -DE/DX =    0.0                 !
 ! R3    R(1,4)                  1.6579         -DE/DX =    0.0                 !
 ! A1    A(2,1,3)              110.9764         -DE/DX =    0.0                 !
 ! A2    A(2,1,4)              110.9764         -DE/DX =    0.0                 !
 ! A3    A(3,1,4)              110.9764         -DE/DX =    0.0                 !
 ! D1    D(2,1,4,3)            123.8895         -DE/DX =    0.0                 !
 --------------------------------------------------------------------------------
 GradGradGradGradGradGradGradGradGradGradGradGradGradGradGradGradGradGrad


 ----------------------------------------------------------------------

 Electric dipole moment (input orientation):
 (Debye = 10**-18 statcoulomb cm , SI units = C m)
                  (au)            (Debye)         (10**-30 SI)
   Tot        0.180038D+00      0.457611D+00      0.152642D+01
   x          0.000000D+00      0.000000D+00      0.000000D+00
   y          0.000000D+00      0.000000D+00      0.000000D+00
   z          0.180038D+00      0.457611D+00      0.152642D+01

 Dipole polarizability, Alpha (input orientation).
 (esu units = cm**3 , SI units = C**2 m**2 J**-1)
 Alpha(0;0):
               (au)            (10**-24 esu)      (10**-40 SI)
   iso        0.318594D+02      0.472107D+01      0.525290D+01
   aniso      0.640242D+01      0.948740D+00      0.105562D+01
   xx         0.339935D+02      0.503732D+01      0.560478D+01
   yx         0.000000D+00      0.000000D+00      0.000000D+00
   yy         0.339935D+02      0.503732D+01      0.560478D+01
   zx         0.000000D+00      0.000000D+00      0.000000D+00
   zy         0.000000D+00      0.000000D+00      0.000000D+00
   zz         0.275911D+02      0.408858D+01      0.454916D+01

 First dipole hyperpolarizability, Beta (input orientation).
 ||, _|_  parallel and perpendicular components, (z) with respect to z axis,
 vector components x,y,z.  Values do not include the 1/n! factor of 1/2.
 (esu units = statvolt**-1 cm**4 , SI units = C**3 m**3 J**-2)
 Beta(0;0,0):
               (au)            (10**-30 esu)      (10**-50 SI)
   || (z)     0.137818D+03      0.119064D+01      0.441894D+00
   _|_(z)     0.459393D+02      0.396880D+00      0.147298D+00
   x          0.000000D+00      0.000000D+00      0.000000D+00
   y          0.000000D+00      0.000000D+00      0.000000D+00
   z          0.689090D+03      0.595320D+01      0.220947D+01
   ||         0.137818D+03      0.119064D+01      0.441894D+00
   xxx        0.890303D+00      0.769153D-02      0.285463D-02
   xxy        0.820956D+02      0.709242D+00      0.263228D+00
   yxy       -0.890303D+00     -0.769153D-02     -0.285463D-02
   yyy       -0.820956D+02     -0.709242D+00     -0.263228D+00
   xxz        0.161567D+03      0.139581D+01      0.518041D+00
   yxz        0.000000D+00      0.000000D+00      0.000000D+00
   yyz        0.161567D+03      0.139581D+01      0.518041D+00
   zxz        0.000000D+00      0.000000D+00      0.000000D+00
   zyz        0.000000D+00      0.000000D+00      0.000000D+00
   zzz       -0.934365D+02     -0.807219D+00     -0.299591D+00

 ----------------------------------------------------------------------

 Dipole orientation:
    13         -0.00000000         -0.00000012          0.32481124
     1          0.01077561          2.98098614         -0.63920622
     1          2.57622202         -1.49982520         -0.63920622
     1         -2.58699763         -1.48116130         -0.63920622

 Electric dipole moment (dipole orientation):
 (Debye = 10**-18 statcoulomb cm , SI units = C m)
                  (au)            (Debye)         (10**-30 SI)
   Tot        0.180038D+00      0.457611D+00      0.152642D+01
   x          0.000000D+00      0.000000D+00      0.000000D+00
   y          0.000000D+00      0.000000D+00      0.000000D+00
   z          0.180038D+00      0.457611D+00      0.152642D+01

 Dipole polarizability, Alpha (dipole orientation).
 (esu units = cm**3 , SI units = C**2 m**2 J**-1)
 Alpha(0;0):
               (au)            (10**-24 esu)      (10**-40 SI)
   iso        0.318594D+02      0.472107D+01      0.525290D+01
   aniso      0.640242D+01      0.948740D+00      0.105562D+01
   xx         0.339935D+02      0.503732D+01      0.560478D+01
   yx         0.000000D+00      0.000000D+00      0.000000D+00
   yy         0.339935D+02      0.503732D+01      0.560478D+01
   zx         0.000000D+00      0.000000D+00      0.000000D+00
   zy         0.000000D+00      0.000000D+00      0.000000D+00
   zz         0.275911D+02      0.408858D+01      0.454916D+01

 First dipole hyperpolarizability, Beta (dipole orientation).
 ||, _|_  parallel and perpendicular components, (z) with respect to z axis,
 vector components x,y,z.  Values do not include the 1/n! factor of 1/2.
 (esu units = statvolt**-1 cm**4 , SI units = C**3 m**3 J**-2)
 Beta(0;0,0):
               (au)            (10**-30 esu)      (10**-50 SI)
   || (z)     0.137818D+03      0.119064D+01      0.441894D+00
   _|_(z)     0.459393D+02      0.396880D+00      0.147298D+00
   x          0.000000D+00      0.000000D+00      0.000000D+00
   y          0.000000D+00      0.000000D+00      0.000000D+00
   z          0.689090D+03      0.595320D+01      0.220947D+01
   ||         0.137818D+03      0.119064D+01      0.441894D+00
   xxx        0.890303D+00      0.769153D-02      0.285463D-02
   xxy        0.820956D+02      0.709242D+00      0.263228D+00
   yxy       -0.890303D+00     -0.769153D-02     -0.285463D-02
   yyy       -0.820956D+02     -0.709242D+00     -0.263228D+00
   xxz        0.161567D+03      0.139581D+01      0.518041D+00
   yxz        0.000000D+00      0.000000D+00      0.000000D+00
   yyz        0.161567D+03      0.139581D+01      0.518041D+00
   zxz        0.000000D+00      0.000000D+00      0.000000D+00
   zyz        0.000000D+00      0.000000D+00      0.000000D+00
   zzz       -0.934365D+02     -0.807219D+00     -0.299591D+00

 ----------------------------------------------------------------------
 1\1\GINC-IISERK51\Freq\UHF\3-21G\Al1H3(1-,2)\GAUSSIAN\14-Jun-2025\0\\#
 N Geom=AllCheck Guess=TCheck SCRF=Check GenChk UHF/3-21G Freq\\Title C
 ard Required\\-1,2\Al,0.,-0.0000000625,0.1718827051\H,0.0057022065,1.5
 774699302,-0.3382533627\H,1.3632779842,-0.7936733145,-0.3382533627\H,-
 1.3689801906,-0.7837968032,-0.3382533627\\Version=EM64L-G16RevB.01\Sta
 te=2-A1\HF=-242.2741228\S2=0.754159\S2-1=0.\S2A=0.750012\RMSD=3.115e-1
 0\RMSF=1.393e-05\ZeroPoint=0.0170635\Thermal=0.020173\Dipole=0.,0.,0.1
 800379\DipoleDeriv=0.4723708,0.,0.,0.,0.4723706,0.,0.,0.,0.2836019,-0.
 4032059,-0.0006332,0.0001963,-0.0006332,-0.5783746,0.0543,0.0008558,0.
 2367417,-0.4278674,-0.5340341,0.0761669,0.0469271,0.0761669,-0.4475465
 ,-0.02732,0.2045965,-0.119112,-0.4278674,-0.5351308,-0.0755337,-0.0471
 233,-0.0755337,-0.4464497,-0.02698,-0.2054522,-0.1176297,-0.4278674\Po
 lar=33.9935285,0.,33.9935285,0.,0.,27.5911103\PolarDeriv=0.0220113,2.0
 296758,-0.0220113,6.6920132,0.,0.,2.0296777,-0.0220113,-2.0296774,0.,6
 .6920079,-0.0000001,8.3916549,0.,8.391651,0.,0.0000013,-8.582528,0.019
 6478,2.7736396,0.0093786,-1.4177538,-0.0058771,-0.0017996,-0.1117896,0
 .0198088,8.1417237,-0.0058771,-3.0435879,-0.4978416,-2.359624,-0.00316
 37,-3.2348132,0.0103908,2.8745442,2.860843,6.4441932,-2.4124584,0.4954
 206,-2.6320396,0.7069454,-0.4302437,-0.960711,2.9890605,-3.0793937,0.7
 069454,-1.8293021,0.2504793,-3.0132761,0.3805499,-2.5811611,2.4842329,
 -1.4462708,2.860843,-6.4858523,-2.3908567,-0.4827879,-2.6422191,-0.701
 0682,0.4320433,-0.957175,-2.986858,-3.0326545,-0.7010682,-1.8191226,0.
 2473623,-3.0187557,-0.3773862,-2.5756815,-2.4946237,-1.4282734,2.86084
 3\HyperPolar=0.8903035,82.0955924,-0.8903035,-82.0955924,161.5666003,0
 .,161.5666003,0.,0.,-93.4365084\Quadrupole=-0.5237619,-0.5237619,1.047
 5239,0.,0.,0.\PG=C03V [C3(Al1),3SGV(H1)]\NImag=0\\0.16224116,0.,0.1622
 4107,0.,0.,0.06796812,-0.01584178,-0.00027645,0.00008608,0.01438516,-0
 .00027645,-0.09231896,0.02381352,0.00031824,0.10242162,0.00012642,0.03
 497247,-0.02265604,-0.00010063,-0.02783940,0.01509707,-0.07296027,0.03
 325381,0.02058008,0.00076450,0.00211032,0.00025230,0.08013690,0.033253
 81,-0.03520049,-0.01198131,0.00785852,-0.00508751,-0.00356750,-0.03828
 002,0.03666987,0.03022385,-0.01759572,-0.02265604,-0.00294884,0.002023
 62,0.00377948,-0.02405931,0.01400685,0.01509707,-0.07343910,-0.0329773
 6,-0.02066617,0.00069213,-0.00215210,-0.00027809,-0.00794114,-0.002832
 32,-0.00321570,0.08068810,-0.03297736,-0.03472166,-0.01183221,-0.00790
 030,-0.00501513,-0.00356558,0.00291589,0.00361813,0.00156525,0.0379617
 9,0.03611867,-0.03035027,-0.01737676,-0.02265604,0.00296340,0.00200225
 ,0.00377948,0.00322693,0.00154196,0.00377948,0.02415994,0.01383255,0.0
 1509707\\0.,0.,0.00002248,0.00000008,0.00002348,-0.00000749,0.00002029
 ,-0.00001181,-0.00000749,-0.00002038,-0.00001167,-0.00000749\\\@


 WOMEN HOLD UP HALF THE SKY. -- MAO TSE TUNG
 Job cpu time:       0 days  0 hours  0 minutes  0.7 seconds.
 Elapsed time:       0 days  0 hours  0 minutes  0.7 seconds.
 File lengths (MBytes):  RWF=      6 Int=      0 D2E=      0 Chk=      1 Scr=      1
 Normal termination of Gaussian 16 at Sat Jun 14 16:40:38 2025.
