 Entering Gaussian System, Link 0=g16
 Input=/home/gaussian/Documents/jeeva/Aromaticity/napthalene/3-21G/napthal_3-21G.com
 Output=/home/gaussian/Documents/jeeva/Aromaticity/napthalene/3-21G/napthal_3-21G.log
 Initial command:
 /usr/local/g16/l1.exe "/home/gaussian/tmp/Gau-93353.inp" -scrdir="/home/gaussian/tmp/"
 Entering Link 1 = /usr/local/g16/l1.exe PID=     93356.
  
 Copyright (c) 1988-2017, Gaussian, Inc.  All Rights Reserved.
  
 This is part of the Gaussian(R) 16 program.  It is based on
 the Gaussian(R) 09 system (copyright 2009, Gaussian, Inc.),
 the Gaussian(R) 03 system (copyright 2003, Gaussian, Inc.),
 the Gaussian(R) 98 system (copyright 1998, Gaussian, Inc.),
 the Gaussian(R) 94 system (copyright 1995, Gaussian, Inc.),
 the Gaussian 92(TM) system (copyright 1992, Gaussian, Inc.),
 the Gaussian 90(TM) system (copyright 1990, Gaussian, Inc.),
 the Gaussian 88(TM) system (copyright 1988, Gaussian, Inc.),
 the Gaussian 86(TM) system (copyright 1986, Carnegie Mellon
 University), and the Gaussian 82(TM) system (copyright 1983,
 Carnegie Mellon University). Gaussian is a federally registered
 trademark of Gaussian, Inc.
  
 This software contains proprietary and confidential information,
 including trade secrets, belonging to Gaussian, Inc.
  
 This software is provided under written license and may be
 used, copied, transmitted, or stored only in accord with that
 written license.
  
 The following legend is applicable only to US Government
 contracts under FAR:
  
                    RESTRICTED RIGHTS LEGEND
  
 Use, reproduction and disclosure by the US Government is
 subject to restrictions as set forth in subparagraphs (a)
 and (c) of the Commercial Computer Software - Restricted
 Rights clause in FAR 52.227-19.
  
 Gaussian, Inc.
 340 Quinnipiac St., Bldg. 40, Wallingford CT 06492
  
  
 ---------------------------------------------------------------
 Warning -- This program may not be used in any manner that
 competes with the business of Gaussian, Inc. or will provide
 assistance to any competitor of Gaussian, Inc.  The licensee
 of this program is prohibited from giving any competitor of
 Gaussian, Inc. access to this program.  By using this program,
 the user acknowledges that Gaussian, Inc. is engaged in the
 business of creating and licensing software in the field of
 computational chemistry and represents and warrants to the
 licensee that it is not a competitor of Gaussian, Inc. and that
 it will not use this program in any manner prohibited above.
 ---------------------------------------------------------------
  

 Cite this work as:
 Gaussian 16, Revision B.01,
 M. J. Frisch, G. W. Trucks, H. B. Schlegel, G. E. Scuseria, 
 M. A. Robb, J. R. Cheeseman, G. Scalmani, V. Barone, 
 G. A. Petersson, H. Nakatsuji, X. Li, M. Caricato, A. V. Marenich, 
 J. Bloino, B. G. Janesko, R. Gomperts, B. Mennucci, H. P. Hratchian, 
 J. V. Ortiz, A. F. Izmaylov, J. L. Sonnenberg, D. Williams-Young, 
 F. Ding, F. Lipparini, F. Egidi, J. Goings, B. Peng, A. Petrone, 
 T. Henderson, D. Ranasinghe, V. G. Zakrzewski, J. Gao, N. Rega, 
 G. Zheng, W. Liang, M. Hada, M. Ehara, K. Toyota, R. Fukuda, 
 J. Hasegawa, M. Ishida, T. Nakajima, Y. Honda, O. Kitao, H. Nakai, 
 T. Vreven, K. Throssell, J. A. Montgomery, Jr., J. E. Peralta, 
 F. Ogliaro, M. J. Bearpark, J. J. Heyd, E. N. Brothers, K. N. Kudin, 
 V. N. Staroverov, T. A. Keith, R. Kobayashi, J. Normand, 
 K. Raghavachari, A. P. Rendell, J. C. Burant, S. S. Iyengar, 
 J. Tomasi, M. Cossi, J. M. Millam, M. Klene, C. Adamo, R. Cammi, 
 J. W. Ochterski, R. L. Martin, K. Morokuma, O. Farkas, 
 J. B. Foresman, and D. J. Fox, Gaussian, Inc., Wallingford CT, 2016.
 
 ******************************************
 Gaussian 16:  EM64L-G16RevB.01 20-Dec-2017
                 9-Jun-2025 
 ******************************************
 %chk=napthal_3-21G.chk
 --------------------------------
 # opt hf/3-21g geom=connectivity
 --------------------------------
 1/18=20,19=15,38=1,57=2/1,3;
 2/9=110,12=2,17=6,18=5,40=1/2;
 3/5=5,11=9,25=1,30=1,71=1/1,2,3;
 4//1;
 5/5=2,38=5/2;
 6/7=2,8=2,9=2,10=2,28=1/1;
 7//1,2,3,16;
 1/18=20,19=15/3(2);
 2/9=110/2;
 99//99;
 2/9=110/2;
 3/5=5,11=9,25=1,30=1,71=1/1,2,3;
 4/5=5,16=3,69=1/1;
 5/5=2,38=5/2;
 7//1,2,3,16;
 1/18=20,19=15/3(-5);
 2/9=110/2;
 6/7=2,8=2,9=2,10=2,19=2,28=1/1;
 99/9=1/99;
 ------------------
 Optimisation 3-21G
 ------------------
 Symbolic Z-matrix:
 Charge =  0 Multiplicity = 1
 C                    -3.59344  -0.18212  -0.00035 
 C                    -2.19214  -0.1762    0.01538 
 C                    -1.49648   1.04034   0.01106 
 C                    -2.20211   2.25096  -0.00897 
 C                    -3.60341   2.24504  -0.02469 
 C                    -4.29908   1.0285   -0.02038 
 H                     0.44359   0.12192   0.04208 
 H                    -4.12459  -1.11097   0.00294 
 H                    -1.65337  -1.10053   0.03067 
 C                    -0.09518   1.04625   0.02678 
 C                    -1.50645   3.46749  -0.01328 
 H                    -4.14218   3.16937  -0.03998 
 H                    -5.369     1.02399  -0.03238 
 C                    -0.10515   3.47341   0.00244 
 C                     0.60048   2.26279   0.02247 
 H                    -2.04522   4.39182  -0.02857 
 H                     1.67041   2.26731   0.03447 
 C                     0.65931   4.81026  -0.0023 
 H                     1.58903   4.69131   0.51382 
 H                     0.84772   5.10981  -1.01209 
 H                     0.07234   5.55852   0.48808 
 

 GradGradGradGradGradGradGradGradGradGradGradGradGradGradGradGradGradGrad
 Berny optimization.
 Initialization pass.
                           ----------------------------
                           !    Initial Parameters    !
                           ! (Angstroms and Degrees)  !
 --------------------------                            --------------------------
 ! Name  Definition              Value          Derivative Info.                !
 --------------------------------------------------------------------------------
 ! R1    R(1,2)                  1.4014         estimate D2E/DX2                !
 ! R2    R(1,6)                  1.4014         estimate D2E/DX2                !
 ! R3    R(1,8)                  1.07           estimate D2E/DX2                !
 ! R4    R(2,3)                  1.4014         estimate D2E/DX2                !
 ! R5    R(2,9)                  1.07           estimate D2E/DX2                !
 ! R6    R(3,4)                  1.4014         estimate D2E/DX2                !
 ! R7    R(3,10)                 1.4014         estimate D2E/DX2                !
 ! R8    R(4,5)                  1.4014         estimate D2E/DX2                !
 ! R9    R(4,11)                 1.4014         estimate D2E/DX2                !
 ! R10   R(5,6)                  1.4014         estimate D2E/DX2                !
 ! R11   R(5,12)                 1.07           estimate D2E/DX2                !
 ! R12   R(6,13)                 1.07           estimate D2E/DX2                !
 ! R13   R(7,10)                 1.07           estimate D2E/DX2                !
 ! R14   R(10,15)                1.4014         estimate D2E/DX2                !
 ! R15   R(11,14)                1.4014         estimate D2E/DX2                !
 ! R16   R(11,16)                1.07           estimate D2E/DX2                !
 ! R17   R(14,15)                1.4014         estimate D2E/DX2                !
 ! R18   R(14,18)                1.54           estimate D2E/DX2                !
 ! R19   R(15,17)                1.07           estimate D2E/DX2                !
 ! R20   R(18,19)                1.07           estimate D2E/DX2                !
 ! R21   R(18,20)                1.07           estimate D2E/DX2                !
 ! R22   R(18,21)                1.07           estimate D2E/DX2                !
 ! A1    A(2,1,6)              120.0            estimate D2E/DX2                !
 ! A2    A(2,1,8)              120.0            estimate D2E/DX2                !
 ! A3    A(6,1,8)              120.0            estimate D2E/DX2                !
 ! A4    A(1,2,3)              120.0            estimate D2E/DX2                !
 ! A5    A(1,2,9)              120.0            estimate D2E/DX2                !
 ! A6    A(3,2,9)              120.0            estimate D2E/DX2                !
 ! A7    A(2,3,4)              120.0            estimate D2E/DX2                !
 ! A8    A(2,3,10)             120.0            estimate D2E/DX2                !
 ! A9    A(4,3,10)             120.0            estimate D2E/DX2                !
 ! A10   A(3,4,5)              120.0            estimate D2E/DX2                !
 ! A11   A(3,4,11)             120.0            estimate D2E/DX2                !
 ! A12   A(5,4,11)             120.0            estimate D2E/DX2                !
 ! A13   A(4,5,6)              120.0            estimate D2E/DX2                !
 ! A14   A(4,5,12)             120.0            estimate D2E/DX2                !
 ! A15   A(6,5,12)             120.0            estimate D2E/DX2                !
 ! A16   A(1,6,5)              120.0            estimate D2E/DX2                !
 ! A17   A(1,6,13)             120.0            estimate D2E/DX2                !
 ! A18   A(5,6,13)             120.0            estimate D2E/DX2                !
 ! A19   A(3,10,7)             120.0            estimate D2E/DX2                !
 ! A20   A(3,10,15)            120.0            estimate D2E/DX2                !
 ! A21   A(7,10,15)            120.0            estimate D2E/DX2                !
 ! A22   A(4,11,14)            120.0            estimate D2E/DX2                !
 ! A23   A(4,11,16)            120.0            estimate D2E/DX2                !
 ! A24   A(14,11,16)           120.0            estimate D2E/DX2                !
 ! A25   A(11,14,15)           120.0            estimate D2E/DX2                !
 ! A26   A(11,14,18)           120.0            estimate D2E/DX2                !
 ! A27   A(15,14,18)           120.0            estimate D2E/DX2                !
 ! A28   A(10,15,14)           120.0            estimate D2E/DX2                !
 ! A29   A(10,15,17)           120.0            estimate D2E/DX2                !
 ! A30   A(14,15,17)           120.0            estimate D2E/DX2                !
 ! A31   A(14,18,19)           109.4712         estimate D2E/DX2                !
 ! A32   A(14,18,20)           109.4712         estimate D2E/DX2                !
 ! A33   A(14,18,21)           109.4712         estimate D2E/DX2                !
 ! A34   A(19,18,20)           109.4712         estimate D2E/DX2                !
 ! A35   A(19,18,21)           109.4712         estimate D2E/DX2                !
 ! A36   A(20,18,21)           109.4712         estimate D2E/DX2                !
 ! D1    D(6,1,2,3)              0.0            estimate D2E/DX2                !
 ! D2    D(6,1,2,9)            180.0            estimate D2E/DX2                !
 ! D3    D(8,1,2,3)           -180.0            estimate D2E/DX2                !
 ! D4    D(8,1,2,9)              0.0            estimate D2E/DX2                !
 ! D5    D(2,1,6,5)              0.0            estimate D2E/DX2                !
 ! D6    D(2,1,6,13)          -180.0            estimate D2E/DX2                !
 ! D7    D(8,1,6,5)            180.0            estimate D2E/DX2                !
 ! D8    D(8,1,6,13)             0.0            estimate D2E/DX2                !
 ! D9    D(1,2,3,4)              0.0            estimate D2E/DX2                !
 ! D10   D(1,2,3,10)          -179.9999         estimate D2E/DX2                !
 ! D11   D(9,2,3,4)            180.0            estimate D2E/DX2                !
 ! D12   D(9,2,3,10)             0.0001         estimate D2E/DX2                !
 ! D13   D(2,3,4,5)              0.0001         estimate D2E/DX2                !
 ! D14   D(2,3,4,11)          -179.9999         estimate D2E/DX2                !
 ! D15   D(10,3,4,5)           179.9999         estimate D2E/DX2                !
 ! D16   D(10,3,4,11)           -0.0001         estimate D2E/DX2                !
 ! D17   D(2,3,10,7)            -0.0001         estimate D2E/DX2                !
 ! D18   D(2,3,10,15)          179.9999         estimate D2E/DX2                !
 ! D19   D(4,3,10,7)          -180.0            estimate D2E/DX2                !
 ! D20   D(4,3,10,15)            0.0            estimate D2E/DX2                !
 ! D21   D(3,4,5,6)             -0.0001         estimate D2E/DX2                !
 ! D22   D(3,4,5,12)           180.0            estimate D2E/DX2                !
 ! D23   D(11,4,5,6)           180.0            estimate D2E/DX2                !
 ! D24   D(11,4,5,12)            0.0            estimate D2E/DX2                !
 ! D25   D(3,4,11,14)            0.0001         estimate D2E/DX2                !
 ! D26   D(3,4,11,16)         -179.9999         estimate D2E/DX2                !
 ! D27   D(5,4,11,14)         -180.0            estimate D2E/DX2                !
 ! D28   D(5,4,11,16)            0.0            estimate D2E/DX2                !
 ! D29   D(4,5,6,1)              0.0            estimate D2E/DX2                !
 ! D30   D(4,5,6,13)          -180.0            estimate D2E/DX2                !
 ! D31   D(12,5,6,1)          -180.0            estimate D2E/DX2                !
 ! D32   D(12,5,6,13)            0.0            estimate D2E/DX2                !
 ! D33   D(3,10,15,14)           0.0            estimate D2E/DX2                !
 ! D34   D(3,10,15,17)        -180.0            estimate D2E/DX2                !
 ! D35   D(7,10,15,14)        -180.0            estimate D2E/DX2                !
 ! D36   D(7,10,15,17)           0.0            estimate D2E/DX2                !
 ! D37   D(4,11,14,15)           0.0            estimate D2E/DX2                !
 ! D38   D(4,11,14,18)         180.0            estimate D2E/DX2                !
 ! D39   D(16,11,14,15)        180.0            estimate D2E/DX2                !
 ! D40   D(16,11,14,18)          0.0            estimate D2E/DX2                !
 ! D41   D(11,14,15,10)          0.0            estimate D2E/DX2                !
 ! D42   D(11,14,15,17)        179.9999         estimate D2E/DX2                !
 ! D43   D(18,14,15,10)        180.0            estimate D2E/DX2                !
 ! D44   D(18,14,15,17)         -0.0001         estimate D2E/DX2                !
 ! D45   D(11,14,18,19)        150.0            estimate D2E/DX2                !
 ! D46   D(11,14,18,20)        -90.0            estimate D2E/DX2                !
 ! D47   D(11,14,18,21)         30.0            estimate D2E/DX2                !
 ! D48   D(15,14,18,19)        -30.0            estimate D2E/DX2                !
 ! D49   D(15,14,18,20)         90.0            estimate D2E/DX2                !
 ! D50   D(15,14,18,21)       -150.0            estimate D2E/DX2                !
 --------------------------------------------------------------------------------
 Trust Radius=3.00D-01 FncErr=1.00D-07 GrdErr=1.00D-07 EigMax=2.50D+02 EigMin=1.00D-04
 Number of steps in this run=    118 maximum allowed number of steps=    126.
 GradGradGradGradGradGradGradGradGradGradGradGradGradGradGradGradGradGrad

                          Input orientation:                          
 ---------------------------------------------------------------------
 Center     Atomic      Atomic             Coordinates (Angstroms)
 Number     Number       Type             X           Y           Z
 ---------------------------------------------------------------------
      1          6           0       -3.593438   -0.182115   -0.000347
      2          6           0       -2.192139   -0.176198    0.015375
      3          6           0       -1.496477    1.040337    0.011065
      4          6           0       -2.202114    2.250955   -0.008968
      5          6           0       -3.603414    2.245038   -0.024690
      6          6           0       -4.299075    1.028503   -0.020379
      7          1           0        0.443592    0.121920    0.042080
      8          1           0       -4.124591   -1.110967    0.002945
      9          1           0       -1.653369   -1.100532    0.030671
     10          6           0       -0.095178    1.046254    0.026785
     11          6           0       -1.506452    3.467490   -0.013280
     12          1           0       -4.142183    3.169372   -0.039984
     13          1           0       -5.368999    1.023985   -0.032383
     14          6           0       -0.105153    3.473407    0.002441
     15          6           0        0.600484    2.262789    0.022473
     16          1           0       -2.045222    4.391824   -0.028574
     17          1           0        1.670408    2.267307    0.034475
     18          6           0        0.659311    4.810259   -0.002297
     19          1           0        1.589028    4.691306    0.513819
     20          1           0        0.847720    5.109806   -1.012086
     21          1           0        0.072337    5.558517    0.488083
 ---------------------------------------------------------------------
                    Distance matrix (angstroms):
                    1          2          3          4          5
     1  C    0.000000
     2  C    1.401400   0.000000
     3  C    2.427296   1.401400   0.000000
     4  C    2.802800   2.427296   1.401400   0.000000
     5  C    2.427296   2.802800   2.427296   1.401400   0.000000
     6  C    1.401400   2.427296   2.802800   2.427296   1.401400
     7  H    4.048685   2.652671   2.146700   3.396345   4.570596
     8  H    1.070000   2.146700   3.396345   3.872800   3.396345
     9  H    2.146700   1.070000   2.146700   3.396345   3.872800
    10  C    3.707756   2.427296   1.401400   2.427296   3.707756
    11  C    4.204200   3.707756   2.427296   1.401400   2.427296
    12  H    3.396345   3.872800   3.396345   2.146700   1.070000
    13  H    2.146700   3.396345   3.872800   3.396345   2.146700
    14  C    5.052820   4.204200   2.802800   2.427296   3.707756
    15  C    4.854592   3.707756   2.427296   2.802800   4.204200
    16  H    4.828943   4.570596   3.396345   2.146700   2.652671
    17  H    5.805941   4.570596   3.396345   3.872800   5.274200
    18  C    6.558176   5.744200   4.342800   3.838989   4.975106
    19  H    7.132500   6.183710   4.806524   4.538874   5.765038
    20  H    6.982259   6.183709   4.806524   4.298926   5.384648
    21  H    6.828714   6.183710   4.806524   4.044769   4.975261
                    6          7          8          9         10
     6  C    0.000000
     7  H    4.828943   0.000000
     8  H    2.146700   4.731791   0.000000
     9  H    3.396345   2.427296   2.471400   0.000000
    10  C    4.204200   1.070000   4.570596   2.652671   0.000000
    11  C    3.707756   3.872800   5.274200   4.570596   2.802800
    12  H    2.146700   5.506636   4.280590   4.942800   4.570596
    13  H    1.070000   5.882642   2.471400   4.280590   5.274200
    14  C    4.854592   3.396345   6.096915   4.828943   2.427296
    15  C    5.052820   2.146700   5.805941   4.048685   1.401400
    16  H    4.048685   4.942800   5.882642   5.506636   3.872800
    17  H    6.096915   2.471400   6.707886   4.731791   2.146700
    18  C    6.235992   4.693509   7.612271   6.347206   3.838989
    19  H    6.954944   4.734327   8.159216   6.655220   4.044769
    20  H    6.643043   5.114058   8.028212   6.775772   4.298926
    21  H    6.315759   5.467480   7.895035   6.894217   4.538874
                   11         12         13         14         15
    11  C    0.000000
    12  H    2.652671   0.000000
    13  H    4.570596   2.471400   0.000000
    14  C    1.401400   4.048685   5.805941   0.000000
    15  C    2.427296   4.828943   6.096915   1.401400   0.000000
    16  H    1.070000   2.427296   4.731791   2.146700   3.396345
    17  H    3.396345   5.882642   7.148675   2.146700   1.070000
    18  C    2.548270   5.074276   7.118798   1.540000   2.548270
    19  H    3.370097   5.955650   7.884270   2.148263   2.667646
    20  H    3.039234   5.441452   7.503422   2.148263   3.039234
    21  H    2.667646   4.873300   7.102183   2.148263   3.370097
                   16         17         18         19         20
    16  H    0.000000
    17  H    4.280590   0.000000
    18  C    2.736837   2.736837   0.000000
    19  H    3.686686   2.472280   1.070000   0.000000
    20  H    3.138775   3.138775   1.070000   1.747303   0.000000
    21  H    2.472279   3.686686   1.070000   1.747303   1.747303
                   21
    21  H    0.000000
 Stoichiometry    C11H10
 Framework group  C1[X(C11H10)]
 Deg. of freedom    57
 Full point group                 C1      NOp   1
 Largest Abelian subgroup         C1      NOp   1
 Largest concise Abelian subgroup C1      NOp   1
                         Standard orientation:                         
 ---------------------------------------------------------------------
 Center     Atomic      Atomic             Coordinates (Angstroms)
 Number     Number       Type             X           Y           Z
 ---------------------------------------------------------------------
      1          6           0       -2.951281    0.330240    0.000001
      2          6           0       -1.886643    1.241540   -0.000000
      3          6           0       -0.565115    0.775186   -0.000001
      4          6           0       -0.308225   -0.602467   -0.000001
      5          6           0       -1.372863   -1.513767   -0.000000
      6          6           0       -2.694391   -1.047414    0.000001
      7          1           0        0.303381    2.738356   -0.000000
      8          1           0       -3.960297    0.686311    0.000001
      9          1           0       -2.082785    2.293409   -0.000001
     10          6           0        0.499523    1.686486   -0.000000
     11          6           0        1.013303   -1.068821   -0.000001
     12          1           0       -1.176722   -2.565636   -0.000001
     13          1           0       -3.507266   -1.743212    0.000001
     14          6           0        2.077941   -0.157521    0.000000
     15          6           0        1.821051    1.220133    0.000001
     16          1           0        1.209444   -2.120690   -0.000001
     17          1           0        2.633925    1.915931    0.000002
     18          6           0        3.530169   -0.669997    0.000000
     19          1           0        4.157239    0.035171   -0.504402
     20          1           0        3.866508   -0.788688    1.008806
     21          1           0        3.575777   -1.612545   -0.504403
 ---------------------------------------------------------------------
 Rotational constants (GHZ):           2.8165711           0.8316160           0.6445661
 Standard basis: 3-21G (6D, 7F)
 There are   119 symmetry adapted cartesian basis functions of A   symmetry.
 There are   119 symmetry adapted basis functions of A   symmetry.
   119 basis functions,   195 primitive gaussians,   119 cartesian basis functions
    38 alpha electrons       38 beta electrons
       nuclear repulsion energy       543.2671278849 Hartrees.
 NAtoms=   21 NActive=   21 NUniq=   21 SFac= 1.00D+00 NAtFMM=   60 NAOKFM=F Big=F
 Integral buffers will be    131072 words long.
 Raffenetti 1 integral format.
 Two-electron integral symmetry is turned on.
 One-electron integrals computed using PRISM.
 NBasis=   119 RedAO= T EigKep=  9.94D-04  NBF=   119
 NBsUse=   119 1.00D-06 EigRej= -1.00D+00 NBFU=   119
 ExpMin= 1.83D-01 ExpMax= 1.72D+02 ExpMxC= 1.72D+02 IAcc=3 IRadAn=         5 AccDes= 0.00D+00
 Harris functional with IExCor=  205 and IRadAn=       5 diagonalized for initial guess.
 HarFok:  IExCor=  205 AccDes= 0.00D+00 IRadAn=         5 IDoV= 1 UseB2=F ITyADJ=14
 ICtDFT=  3500011 ScaDFX=  1.000000  1.000000  1.000000  1.000000
 FoFCou: FMM=F IPFlag=           0 FMFlag=      100000 FMFlg1=           0
         NFxFlg=           0 DoJE=T BraDBF=F KetDBF=T FulRan=T
         wScrn=  0.000000 ICntrl=       500 IOpCl=  0 I1Cent=   200000004 NGrid=           0
         NMat0=    1 NMatS0=      1 NMatT0=    0 NMatD0=    1 NMtDS0=    0 NMtDT0=    0
 Petite list used in FoFCou.
 Keep R1 ints in memory in canonical form, NReq=26359319.
 Requested convergence on RMS density matrix=1.00D-08 within 128 cycles.
 Requested convergence on MAX density matrix=1.00D-06.
 Requested convergence on             energy=1.00D-06.
 No special actions if energy rises.
 SCF Done:  E(RHF) =  -420.027699050     A.U. after   13 cycles
            NFock= 13  Conv=0.51D-08     -V/T= 2.0021

 **********************************************************************

            Population analysis using the SCF Density.

 **********************************************************************

 Orbital symmetries:
       Occupied  (A) (A) (A) (A) (A) (A) (A) (A) (A) (A) (A) (A)
                 (A) (A) (A) (A) (A) (A) (A) (A) (A) (A) (A) (A)
                 (A) (A) (A) (A) (A) (A) (A) (A) (A) (A) (A) (A)
                 (A) (A)
       Virtual   (A) (A) (A) (A) (A) (A) (A) (A) (A) (A) (A) (A)
                 (A) (A) (A) (A) (A) (A) (A) (A) (A) (A) (A) (A)
                 (A) (A) (A) (A) (A) (A) (A) (A) (A) (A) (A) (A)
                 (A) (A) (A) (A) (A) (A) (A) (A) (A) (A) (A) (A)
                 (A) (A) (A) (A) (A) (A) (A) (A) (A) (A) (A) (A)
                 (A) (A) (A) (A) (A) (A) (A) (A) (A) (A) (A) (A)
                 (A) (A) (A) (A) (A) (A) (A) (A) (A)
 The electronic state is 1-A.
 Alpha  occ. eigenvalues --  -11.19150 -11.18458 -11.18306 -11.18198 -11.18061
 Alpha  occ. eigenvalues --  -11.17994 -11.17873 -11.17819 -11.17772 -11.17458
 Alpha  occ. eigenvalues --  -11.16112  -1.18175  -1.11306  -1.05425  -1.02907
 Alpha  occ. eigenvalues --   -0.98169  -0.93665  -0.85415  -0.82264  -0.81630
 Alpha  occ. eigenvalues --   -0.70679  -0.69781  -0.66770  -0.62957  -0.61810
 Alpha  occ. eigenvalues --   -0.59094  -0.58542  -0.58221  -0.55388  -0.53991
 Alpha  occ. eigenvalues --   -0.53333  -0.51764  -0.48204  -0.47146  -0.43765
 Alpha  occ. eigenvalues --   -0.38530  -0.31941  -0.27552
 Alpha virt. eigenvalues --    0.09129   0.13872   0.19337   0.26710   0.27796
 Alpha virt. eigenvalues --    0.28786   0.29301   0.31464   0.33889   0.35336
 Alpha virt. eigenvalues --    0.35902   0.36722   0.37322   0.39278   0.42719
 Alpha virt. eigenvalues --    0.43540   0.46564   0.48350   0.52168   0.53472
 Alpha virt. eigenvalues --    0.54931   0.56419   0.60357   0.75037   0.76629
 Alpha virt. eigenvalues --    0.80418   0.86748   0.87939   0.89271   0.93605
 Alpha virt. eigenvalues --    0.95585   0.96119   0.98385   1.00047   1.00277
 Alpha virt. eigenvalues --    1.02986   1.03240   1.05284   1.06498   1.08204
 Alpha virt. eigenvalues --    1.09037   1.09738   1.11833   1.13282   1.13489
 Alpha virt. eigenvalues --    1.16467   1.19484   1.20787   1.21664   1.27336
 Alpha virt. eigenvalues --    1.28384   1.29860   1.32571   1.34422   1.36021
 Alpha virt. eigenvalues --    1.36990   1.37683   1.41564   1.46626   1.47049
 Alpha virt. eigenvalues --    1.52912   1.53115   1.59063   1.63977   1.64271
 Alpha virt. eigenvalues --    1.70336   1.71836   1.77973   1.79302   1.79985
 Alpha virt. eigenvalues --    1.80872   1.85699   1.86622   1.88923   2.07507
 Alpha virt. eigenvalues --    2.19718   2.22102   2.23554   2.25076   2.72023
 Alpha virt. eigenvalues --    2.81038
          Condensed to atoms (all electrons):
               1          2          3          4          5          6
     1  C    5.158282   0.527488  -0.115457   0.001275  -0.109384   0.438907
     2  C    0.527488   5.115229   0.410485  -0.060338  -0.009136  -0.109112
     3  C   -0.115457   0.410485   5.257683   0.443707  -0.060373   0.001320
     4  C    0.001275  -0.060338   0.443707   5.230804   0.410976  -0.114969
     5  C   -0.109384  -0.009136  -0.060373   0.410976   5.123713   0.526502
     6  C    0.438907  -0.109112   0.001320  -0.114969   0.526502   5.153656
     7  H    0.000039   0.001414  -0.041211   0.001990  -0.000063   0.000008
     8  H    0.397585  -0.031444   0.002704  -0.000140   0.002355  -0.033573
     9  H   -0.026537   0.401394  -0.041062   0.001988  -0.000016   0.001972
    10  C    0.001226  -0.058682   0.413771  -0.060534   0.002037   0.000405
    11  C    0.000384   0.002196  -0.060603   0.419435  -0.060102   0.001229
    12  H    0.001982  -0.000022   0.002025  -0.041142   0.401769  -0.026822
    13  H   -0.033484   0.002352  -0.000142   0.002678  -0.031322   0.397226
    14  C   -0.000005   0.000304  -0.001648  -0.116735   0.001594  -0.000073
    15  C   -0.000065   0.001413  -0.113397  -0.001745   0.000343  -0.000009
    16  H    0.000008  -0.000067   0.002047  -0.037843   0.001217   0.000032
    17  H    0.000001  -0.000051   0.002631  -0.000106   0.000001  -0.000000
    18  C   -0.000000   0.000001   0.000111   0.002096  -0.000058   0.000000
    19  H    0.000000  -0.000000  -0.000001  -0.000064   0.000001  -0.000000
    20  H   -0.000000  -0.000000   0.000005  -0.000041   0.000002  -0.000000
    21  H    0.000000  -0.000000   0.000000   0.000202  -0.000001  -0.000000
               7          8          9         10         11         12
     1  C    0.000039   0.397585  -0.026537   0.001226   0.000384   0.001982
     2  C    0.001414  -0.031444   0.401394  -0.058682   0.002196  -0.000022
     3  C   -0.041211   0.002704  -0.041062   0.413771  -0.060603   0.002025
     4  C    0.001990  -0.000140   0.001988  -0.060534   0.419435  -0.041142
     5  C   -0.000063   0.002355  -0.000016   0.002037  -0.060102   0.401769
     6  C    0.000008  -0.033573   0.001972   0.000405   0.001229  -0.026822
     7  H    0.421043  -0.000001   0.001915   0.400518  -0.000037   0.000000
     8  H   -0.000001   0.426398  -0.001169  -0.000049   0.000000  -0.000033
     9  H    0.001915  -0.001169   0.420572   0.001370  -0.000064   0.000002
    10  C    0.400518  -0.000049   0.001370   5.104329  -0.011425  -0.000064
    11  C   -0.000037   0.000000  -0.000064  -0.011425   5.110959   0.001247
    12  H    0.000000  -0.000033   0.000002  -0.000064   0.001247   0.421326
    13  H   -0.000000  -0.001212  -0.000033   0.000000  -0.000048  -0.001161
    14  C    0.002215  -0.000000   0.000007  -0.110036   0.529842   0.000047
    15  C   -0.026989   0.000000   0.000039   0.529285  -0.087456   0.000006
    16  H    0.000002  -0.000000   0.000000   0.000012   0.403045   0.002016
    17  H   -0.001132  -0.000000  -0.000001  -0.028819   0.002143  -0.000000
    18  C   -0.000042   0.000000  -0.000000   0.001970  -0.055030  -0.000003
    19  H    0.000000  -0.000000   0.000000   0.000168   0.002313   0.000000
    20  H    0.000001  -0.000000   0.000000  -0.000032  -0.000933   0.000000
    21  H    0.000000   0.000000   0.000000  -0.000061  -0.001142   0.000001
              13         14         15         16         17         18
     1  C   -0.033484  -0.000005  -0.000065   0.000008   0.000001  -0.000000
     2  C    0.002352   0.000304   0.001413  -0.000067  -0.000051   0.000001
     3  C   -0.000142  -0.001648  -0.113397   0.002047   0.002631   0.000111
     4  C    0.002678  -0.116735  -0.001745  -0.037843  -0.000106   0.002096
     5  C   -0.031322   0.001594   0.000343   0.001217   0.000001  -0.000058
     6  C    0.397226  -0.000073  -0.000009   0.000032  -0.000000   0.000000
     7  H   -0.000000   0.002215  -0.026989   0.000002  -0.001132  -0.000042
     8  H   -0.001212  -0.000000   0.000000  -0.000000  -0.000000   0.000000
     9  H   -0.000033   0.000007   0.000039   0.000000  -0.000001  -0.000000
    10  C    0.000000  -0.110036   0.529285   0.000012  -0.028819   0.001970
    11  C   -0.000048   0.529842  -0.087456   0.403045   0.002143  -0.055030
    12  H   -0.001161   0.000047   0.000006   0.002016  -0.000000  -0.000003
    13  H    0.425735   0.000000  -0.000000  -0.000002   0.000000  -0.000000
    14  C    0.000000   5.280457   0.436814  -0.028918  -0.035713   0.257533
    15  C   -0.000000   0.436814   5.153247   0.001843   0.399472  -0.056501
    16  H   -0.000002  -0.028918   0.001843   0.421986  -0.000038  -0.001061
    17  H    0.000000  -0.035713   0.399472  -0.000038   0.425143  -0.001046
    18  C   -0.000000   0.257533  -0.056501  -0.001061  -0.001046   5.294044
    19  H    0.000000  -0.050995  -0.000761   0.000011   0.000937   0.385604
    20  H    0.000000  -0.052067   0.000219   0.000076   0.000099   0.378634
    21  H   -0.000000  -0.049978   0.002407   0.000926   0.000008   0.386506
              19         20         21
     1  C    0.000000  -0.000000   0.000000
     2  C   -0.000000  -0.000000  -0.000000
     3  C   -0.000001   0.000005   0.000000
     4  C   -0.000064  -0.000041   0.000202
     5  C    0.000001   0.000002  -0.000001
     6  C   -0.000000  -0.000000  -0.000000
     7  H    0.000000   0.000001   0.000000
     8  H   -0.000000  -0.000000   0.000000
     9  H    0.000000   0.000000   0.000000
    10  C    0.000168  -0.000032  -0.000061
    11  C    0.002313  -0.000933  -0.001142
    12  H    0.000000   0.000000   0.000001
    13  H    0.000000   0.000000  -0.000000
    14  C   -0.050995  -0.052067  -0.049978
    15  C   -0.000761   0.000219   0.002407
    16  H    0.000011   0.000076   0.000926
    17  H    0.000937   0.000099   0.000008
    18  C    0.385604   0.378634   0.386506
    19  H    0.495513  -0.024947  -0.023590
    20  H   -0.024947   0.493770  -0.023923
    21  H   -0.023590  -0.023923   0.490108
 Mulliken charges:
               1
     1  C   -0.242245
     2  C   -0.193423
     3  C   -0.102597
     4  C   -0.081496
     5  C   -0.200053
     6  C   -0.236699
     7  H    0.240329
     8  H    0.238581
     9  H    0.239623
    10  C   -0.185393
    11  C   -0.195954
    12  H    0.238826
    13  H    0.239410
    14  C   -0.062647
    15  C   -0.238168
    16  H    0.234707
    17  H    0.236472
    18  C   -0.592759
    19  H    0.215811
    20  H    0.229137
    21  H    0.218537
 Sum of Mulliken charges =  -0.00000
 Mulliken charges with hydrogens summed into heavy atoms:
               1
     1  C   -0.003664
     2  C    0.046200
     3  C   -0.102597
     4  C   -0.081496
     5  C    0.038773
     6  C    0.002712
    10  C    0.054937
    11  C    0.038753
    14  C   -0.062647
    15  C   -0.001696
    18  C    0.070726
 Electronic spatial extent (au):  <R**2>=           1759.8642
 Charge=             -0.0000 electrons
 Dipole moment (field-independent basis, Debye):
    X=              0.4116    Y=             -0.0088    Z=              0.0292  Tot=              0.4128
 Quadrupole moment (field-independent basis, Debye-Ang):
   XX=            -56.6848   YY=            -57.2297   ZZ=            -72.9689
   XY=             -0.2095   XZ=              0.0814   YZ=             -0.0100
 Traceless Quadrupole moment (field-independent basis, Debye-Ang):
   XX=              5.6097   YY=              5.0648   ZZ=            -10.6745
   XY=             -0.2095   XZ=              0.0814   YZ=             -0.0100
 Octapole moment (field-independent basis, Debye-Ang**2):
  XXX=             -3.7333  YYY=              1.4028  ZZZ=              0.6652  XYY=             -1.9910
  XXY=              0.3414  XXZ=              0.1630  XZZ=              5.7786  YZZ=             -1.1073
  YYZ=             -0.5258  XYZ=             -0.2044
 Hexadecapole moment (field-independent basis, Debye-Ang**3):
 XXXX=          -1640.4602 YYYY=           -510.6075 ZZZZ=            -83.9750 XXXY=             11.3901
 XXXZ=             -0.1212 YYYX=              0.2745 YYYZ=              1.3664 ZZZX=              2.5796
 ZZZY=             -0.5244 XXYY=           -361.5231 XXZZ=           -338.1158 YYZZ=           -122.7580
 XXYZ=             -1.4759 YYXZ=             -1.8282 ZZXY=             -4.3149
 N-N= 5.432671278849D+02 E-N=-2.063043882201D+03  KE= 4.191666854597D+02
 Calling FoFJK, ICntrl=      2127 FMM=F ISym2X=0 I1Cent= 0 IOpClX= 0 NMat=1 NMatS=1 NMatT=0.
 ***** Axes restored to original set *****
 -------------------------------------------------------------------
 Center     Atomic                   Forces (Hartrees/Bohr)
 Number     Number              X              Y              Z
 -------------------------------------------------------------------
      1        6           0.038102387   -0.002085634    0.000450388
      2        6          -0.049875253   -0.004244044   -0.000403144
      3        6           0.006252908   -0.012923340    0.000171373
      4        6          -0.006684312    0.012482459   -0.000731661
      5        6          -0.028906264   -0.041391021    0.000173824
      6        6           0.018047917    0.034191632   -0.000127792
      7        1           0.000112161   -0.001588136    0.000117395
      8        1          -0.000317551   -0.001177926   -0.000005224
      9        1           0.001240509   -0.000875093    0.000025116
     10        6           0.028429864    0.041573123   -0.000498870
     11        6           0.049253868   -0.001360428    0.000418998
     12        1          -0.000052695    0.001467806   -0.000021575
     13        1          -0.001222005    0.000281001   -0.000027398
     14        6          -0.029914511    0.019699424    0.000785391
     15        6          -0.021510232   -0.037767357   -0.000448925
     16        1          -0.001056258    0.001202576    0.000360453
     17        1           0.001525215    0.000102075    0.000243283
     18        6          -0.012813468   -0.022674546    0.001299406
     19        1           0.008865947    0.001959839    0.004119026
     20        1           0.003376013    0.004754378   -0.009457053
     21        1          -0.002854241    0.008373212    0.003556988
 -------------------------------------------------------------------
 Cartesian Forces:  Max     0.049875253 RMS     0.016694935

 GradGradGradGradGradGradGradGradGradGradGradGradGradGradGradGradGradGrad
 Berny optimization.
 FormGI is forming the generalized inverse of G from B-inverse, IUseBI=4.
 Internal  Forces:  Max     0.035866387 RMS     0.007843845
 Search for a local minimum.
 Step number   1 out of a maximum of  118
 All quantities printed in internal units (Hartrees-Bohrs-Radians)
 Mixed Optimization -- RFO/linear search
 Second derivative matrix not updated -- first step.
 ITU=  0
     Eigenvalues ---    0.00237   0.01341   0.02070   0.02070   0.02070
     Eigenvalues ---    0.02070   0.02070   0.02070   0.02070   0.02070
     Eigenvalues ---    0.02070   0.02070   0.02070   0.02070   0.02070
     Eigenvalues ---    0.02070   0.07243   0.07243   0.16000   0.16000
     Eigenvalues ---    0.16000   0.16000   0.16000   0.16000   0.16000
     Eigenvalues ---    0.16000   0.16000   0.16000   0.22000   0.22301
     Eigenvalues ---    0.22718   0.23522   0.24381   0.24757   0.25000
     Eigenvalues ---    0.28519   0.37230   0.37230   0.37230   0.37230
     Eigenvalues ---    0.37230   0.37230   0.37230   0.37230   0.37230
     Eigenvalues ---    0.37230   0.39186   0.41052   0.41682   0.43123
     Eigenvalues ---    0.45389   0.45389   0.45389   0.45389   0.45389
     Eigenvalues ---    0.45389   0.45389
 RFO step:  Lambda=-1.56718605D-02 EMin= 2.36824190D-03
 Linear search not attempted -- first point.
 Iteration  1 RMS(Cart)=  0.01999889 RMS(Int)=  0.00022482
 Iteration  2 RMS(Cart)=  0.00024386 RMS(Int)=  0.00004714
 Iteration  3 RMS(Cart)=  0.00000007 RMS(Int)=  0.00004714
 Variable       Old X    -DE/DX   Delta X   Delta X   Delta X     New X
                                 (Linear)    (Quad)   (Total)
    R1        2.64826  -0.03587   0.00000  -0.07824  -0.07826   2.57000
    R2        2.64826   0.00467   0.00000   0.00627   0.00624   2.65450
    R3        2.02201   0.00118   0.00000   0.00304   0.00304   2.02505
    R4        2.64826   0.00990   0.00000   0.02290   0.02291   2.67117
    R5        2.02201   0.00138   0.00000   0.00356   0.00356   2.02557
    R6        2.64826   0.00700   0.00000   0.02216   0.02225   2.67052
    R7        2.64826   0.00898   0.00000   0.02076   0.02077   2.66903
    R8        2.64826   0.01025   0.00000   0.02368   0.02370   2.67196
    R9        2.64826   0.01062   0.00000   0.02454   0.02459   2.67285
   R10        2.64826  -0.03551   0.00000  -0.07745  -0.07746   2.57080
   R11        2.02201   0.00129   0.00000   0.00334   0.00334   2.02534
   R12        2.02201   0.00122   0.00000   0.00315   0.00315   2.02515
   R13        2.02201   0.00143   0.00000   0.00369   0.00369   2.02569
   R14        2.64826  -0.03548   0.00000  -0.07750  -0.07755   2.57072
   R15        2.64826  -0.03370   0.00000  -0.07341  -0.07342   2.57484
   R16        2.02201   0.00157   0.00000   0.00404   0.00404   2.02604
   R17        2.64826   0.00672   0.00000   0.01073   0.01067   2.65893
   R18        2.91018  -0.00829   0.00000  -0.02754  -0.02754   2.88264
   R19        2.02201   0.00153   0.00000   0.00394   0.00394   2.02595
   R20        2.02201   0.00947   0.00000   0.02442   0.02442   2.04642
   R21        2.02201   0.01085   0.00000   0.02797   0.02797   2.04997
   R22        2.02201   0.00905   0.00000   0.02333   0.02333   2.04534
    A1        2.09440   0.00349   0.00000   0.00469   0.00466   2.09906
    A2        2.09440  -0.00206   0.00000  -0.00412  -0.00411   2.09029
    A3        2.09440  -0.00143   0.00000  -0.00057  -0.00055   2.09384
    A4        2.09440   0.00258   0.00000   0.01203   0.01204   2.10643
    A5        2.09440  -0.00065   0.00000  -0.00238  -0.00239   2.09201
    A6        2.09440  -0.00193   0.00000  -0.00965  -0.00965   2.08474
    A7        2.09440  -0.00576   0.00000  -0.01584  -0.01582   2.07857
    A8        2.09440   0.01371   0.00000   0.04105   0.04098   2.13537
    A9        2.09440  -0.00794   0.00000  -0.02521  -0.02516   2.06924
   A10        2.09440  -0.00737   0.00000  -0.02209  -0.02208   2.07231
   A11        2.09440  -0.00614   0.00000  -0.01795  -0.01786   2.07654
   A12        2.09440   0.01351   0.00000   0.04003   0.03994   2.13433
   A13        2.09440   0.00272   0.00000   0.01278   0.01281   2.10720
   A14        2.09440  -0.00206   0.00000  -0.01038  -0.01040   2.08400
   A15        2.09440  -0.00066   0.00000  -0.00240  -0.00241   2.09198
   A16        2.09440   0.00435   0.00000   0.00841   0.00839   2.10279
   A17        2.09440  -0.00188   0.00000  -0.00256  -0.00255   2.09185
   A18        2.09440  -0.00246   0.00000  -0.00585  -0.00584   2.08855
   A19        2.09440  -0.00234   0.00000  -0.01108  -0.01107   2.08333
   A20        2.09440   0.00326   0.00000   0.01407   0.01405   2.10844
   A21        2.09440  -0.00092   0.00000  -0.00299  -0.00298   2.09141
   A22        2.09440   0.00544   0.00000   0.02449   0.02454   2.11894
   A23        2.09440  -0.00303   0.00000  -0.01400  -0.01403   2.08037
   A24        2.09440  -0.00241   0.00000  -0.01049  -0.01051   2.08388
   A25        2.09440  -0.00150   0.00000  -0.01432  -0.01440   2.07999
   A26        2.09440   0.00190   0.00000   0.01149   0.01149   2.10588
   A27        2.09440  -0.00040   0.00000   0.00283   0.00283   2.09722
   A28        2.09440   0.00690   0.00000   0.01892   0.01883   2.11322
   A29        2.09440  -0.00335   0.00000  -0.00892  -0.00888   2.08552
   A30        2.09440  -0.00354   0.00000  -0.01000  -0.00995   2.08445
   A31        1.91063   0.00332   0.00000   0.01887   0.01872   1.92935
   A32        1.91063   0.00201   0.00000   0.01094   0.01083   1.92147
   A33        1.91063   0.00322   0.00000   0.01885   0.01869   1.92932
   A34        1.91063  -0.00288   0.00000  -0.01741  -0.01750   1.89313
   A35        1.91063  -0.00306   0.00000  -0.01645  -0.01664   1.89399
   A36        1.91063  -0.00261   0.00000  -0.01480  -0.01492   1.89572
    D1        0.00000  -0.00003   0.00000  -0.00067  -0.00067  -0.00067
    D2        3.14159  -0.00001   0.00000  -0.00026  -0.00026   3.14133
    D3       -3.14159  -0.00002   0.00000  -0.00055  -0.00056   3.14103
    D4       -0.00000  -0.00001   0.00000  -0.00015  -0.00015  -0.00015
    D5       -0.00000   0.00000   0.00000  -0.00002  -0.00003  -0.00003
    D6       -3.14159   0.00001   0.00000   0.00019   0.00019  -3.14140
    D7        3.14159  -0.00001   0.00000  -0.00013  -0.00014   3.14145
    D8       -0.00000   0.00000   0.00000   0.00008   0.00008   0.00008
    D9       -0.00000   0.00003   0.00000   0.00070   0.00071   0.00071
   D10       -3.14159  -0.00002   0.00000  -0.00018  -0.00018   3.14141
   D11        3.14159   0.00001   0.00000   0.00029   0.00030  -3.14129
   D12        0.00000  -0.00003   0.00000  -0.00058  -0.00059  -0.00059
   D13        0.00000   0.00000   0.00000  -0.00005  -0.00006  -0.00005
   D14       -3.14159  -0.00008   0.00000  -0.00220  -0.00215   3.13944
   D15        3.14159   0.00004   0.00000   0.00083   0.00080  -3.14079
   D16       -0.00000  -0.00004   0.00000  -0.00132  -0.00129  -0.00129
   D17       -0.00000  -0.00001   0.00000  -0.00009  -0.00010  -0.00010
   D18        3.14159   0.00006   0.00000   0.00161   0.00161  -3.13998
   D19       -3.14159  -0.00005   0.00000  -0.00097  -0.00098   3.14061
   D20        0.00000   0.00002   0.00000   0.00073   0.00073   0.00073
   D21       -0.00000  -0.00003   0.00000  -0.00064  -0.00064  -0.00064
   D22        3.14159  -0.00002   0.00000  -0.00050  -0.00049   3.14110
   D23        3.14159   0.00006   0.00000   0.00151   0.00153  -3.14006
   D24       -0.00000   0.00006   0.00000   0.00166   0.00167   0.00167
   D25        0.00000   0.00007   0.00000   0.00125   0.00127   0.00127
   D26       -3.14159   0.00008   0.00000   0.00188   0.00189  -3.13970
   D27       -3.14159  -0.00002   0.00000  -0.00090  -0.00090   3.14069
   D28        0.00000  -0.00000   0.00000  -0.00027  -0.00028  -0.00028
   D29        0.00000   0.00003   0.00000   0.00068   0.00069   0.00069
   D30       -3.14159   0.00002   0.00000   0.00047   0.00047  -3.14113
   D31       -3.14159   0.00002   0.00000   0.00053   0.00055  -3.14105
   D32       -0.00000   0.00001   0.00000   0.00032   0.00033   0.00033
   D33        0.00000  -0.00002   0.00000  -0.00006  -0.00008  -0.00008
   D34       -3.14159   0.00000   0.00000   0.00042   0.00039  -3.14120
   D35       -3.14159   0.00005   0.00000   0.00164   0.00164  -3.13996
   D36        0.00000   0.00007   0.00000   0.00212   0.00211   0.00211
   D37       -0.00000  -0.00007   0.00000  -0.00059  -0.00063  -0.00063
   D38        3.14159  -0.00049   0.00000  -0.01503  -0.01504   3.12656
   D39        3.14159  -0.00009   0.00000  -0.00122  -0.00124   3.14035
   D40       -0.00000  -0.00051   0.00000  -0.01567  -0.01565  -0.01565
   D41       -0.00000   0.00005   0.00000  -0.00001   0.00002   0.00002
   D42        3.14159   0.00002   0.00000  -0.00049  -0.00045   3.14114
   D43        3.14159   0.00047   0.00000   0.01444   0.01436  -3.12723
   D44       -0.00000   0.00044   0.00000   0.01396   0.01389   0.01388
   D45        2.61799   0.00018   0.00000  -0.00217  -0.00207   2.61592
   D46       -1.57080  -0.00009   0.00000  -0.00523  -0.00518  -1.57598
   D47        0.52360  -0.00008   0.00000  -0.00512  -0.00510   0.51850
   D48       -0.52360  -0.00024   0.00000  -0.01661  -0.01662  -0.54022
   D49        1.57080  -0.00051   0.00000  -0.01968  -0.01974   1.55106
   D50       -2.61799  -0.00050   0.00000  -0.01957  -0.01965  -2.63765
         Item               Value     Threshold  Converged?
 Maximum Force            0.035866     0.000450     NO 
 RMS     Force            0.007844     0.000300     NO 
 Maximum Displacement     0.066383     0.001800     NO 
 RMS     Displacement     0.019978     0.001200     NO 
 Predicted change in Energy=-8.150966D-03
 GradGradGradGradGradGradGradGradGradGradGradGradGradGradGradGradGradGrad

                          Input orientation:                          
 ---------------------------------------------------------------------
 Center     Atomic      Atomic             Coordinates (Angstroms)
 Number     Number       Type             X           Y           Z
 ---------------------------------------------------------------------
      1          6           0       -3.580103   -0.179035   -0.004545
      2          6           0       -2.220215   -0.181796    0.011595
      3          6           0       -1.496241    1.032251    0.010836
      4          6           0       -2.204821    2.254827   -0.006096
      5          6           0       -3.618275    2.221138   -0.021813
      6          6           0       -4.285502    1.035591   -0.021433
      7          1           0        0.466029    0.150553    0.041363
      8          1           0       -4.114019   -1.108164   -0.004246
      9          1           0       -1.688497   -1.112409    0.024676
     10          6           0       -0.084461    1.070253    0.027497
     11          6           0       -1.477955    3.468179   -0.004159
     12          1           0       -4.166471    3.142011   -0.034267
     13          1           0       -5.357080    1.030042   -0.033916
     14          6           0       -0.115554    3.479679    0.012146
     15          6           0        0.580551    2.256992    0.028128
     16          1           0       -2.012001    4.397774   -0.015204
     17          1           0        1.652555    2.261265    0.040565
     18          6           0        0.651450    4.798129   -0.005754
     19          1           0        1.594476    4.696301    0.516787
     20          1           0        0.855759    5.096549   -1.028492
     21          1           0        0.075452    5.579130    0.473554
 ---------------------------------------------------------------------
                    Distance matrix (angstroms):
                    1          2          3          4          5
     1  C    0.000000
     2  C    1.359987   0.000000
     3  C    2.410379   1.413523   0.000000
     4  C    2.795548   2.436737   1.413176   0.000000
     5  C    2.400538   2.780248   2.432601   1.413943   0.000000
     6  C    1.404703   2.397610   2.789450   2.411640   1.360409
     7  H    4.059793   2.706889   2.151470   3.400538   4.579612
     8  H    1.071610   2.108294   3.381473   3.867137   3.366054
     9  H    2.109553   1.071884   2.153304   3.406731   3.852108
    10  C    3.712312   2.475747   1.412390   2.429048   3.716828
    11  C    4.209654   3.724717   2.436043   1.414411   2.477174
    12  H    3.372545   3.851976   3.403418   2.153128   1.071766
    13  H    2.149506   3.363116   3.861099   3.381954   2.107677
    14  C    5.038805   4.223268   2.810018   2.421906   3.722113
    15  C    4.821445   3.713792   2.411090   2.785583   4.199276
    16  H    4.837999   4.584379   3.404913   2.151623   2.705162
    17  H    5.773890   4.579054   3.380277   3.857663   5.271351
    18  C    6.532856   5.748601   4.335285   3.824483   4.987153
    19  H    7.128601   6.213124   4.820143   4.546301   5.795627
    20  H    6.968294   6.197123   4.809432   4.299747   5.412797
    21  H    6.837259   6.218662   4.833057   4.059642   5.016484
                    6          7          8          9         10
     6  C    0.000000
     7  H    4.833661   0.000000
     8  H    2.150671   4.750083   0.000000
     9  H    3.370529   2.497465   2.425698   0.000000
    10  C    4.201469   1.071951   4.580813   2.708681   0.000000
    11  C    3.714848   3.845489   5.281263   4.585514   2.773603
    12  H    2.109819   5.514943   4.250605   4.923812   4.578079
    13  H    1.071665   5.889632   2.473460   4.248768   5.273131
    14  C    4.833545   3.379670   6.085745   4.854026   2.409675
    15  C    5.017245   2.109591   5.776185   4.062198   1.360364
    16  H    4.058709   4.917592   5.893551   5.519815   3.845729
    17  H    6.063550   2.421353   6.678955   4.748111   2.106159
    18  C    6.207289   4.651512   7.589071   6.356944   3.799965
    19  H    6.947274   4.707785   8.157830   6.690380   4.025724
    20  H    6.628583   5.075368   8.015375   6.792169   4.267340
    21  H    6.317173   5.459742   7.905685   6.934673   4.533708
                   11         12         13         14         15
    11  C    0.000000
    12  H    2.708396   0.000000
    13  H    4.581813   2.424452   0.000000
    14  C    1.362547   4.065231   5.785883   0.000000
    15  C    2.388611   4.829221   6.063392   1.407047   0.000000
    16  H    1.072135   2.493801   4.746738   2.107168   3.362462
    17  H    3.355403   5.885778   7.117334   2.147451   1.072084
    18  C    2.510605   5.094694   7.092370   1.525427   2.542352
    19  H    3.349552   5.992328   7.878380   2.158480   2.686458
    20  H    3.024413   5.480100   7.491665   2.154216   3.042248
    21  H    2.664094   4.918469   7.103811   2.158026   3.389709
                   16         17         18         19         20
    16  H    0.000000
    17  H    4.242257   0.000000
    18  C    2.693389   2.727642   0.000000
    19  H    3.657706   2.481846   1.082920   0.000000
    20  H    3.120751   3.133145   1.084799   1.758917   0.000000
    21  H    2.447845   3.699048   1.082346   1.757467   1.760087
                   21
    21  H    0.000000
 Stoichiometry    C11H10
 Framework group  C1[X(C11H10)]
 Deg. of freedom    57
 Full point group                 C1      NOp   1
 Largest Abelian subgroup         C1      NOp   1
 Largest concise Abelian subgroup C1      NOp   1
                         Standard orientation:                         
 ---------------------------------------------------------------------
 Center     Atomic      Atomic             Coordinates (Angstroms)
 Number     Number       Type             X           Y           Z
 ---------------------------------------------------------------------
      1          6           0       -2.938138    0.334385    0.002991
      2          6           0       -1.911241    1.226038    0.002111
      3          6           0       -0.569537    0.781206    0.000339
      4          6           0       -0.305924   -0.607164   -0.001385
      5          6           0       -1.397180   -1.506271   -0.001209
      6          6           0       -2.677319   -1.045891    0.001328
      7          1           0        0.338174    2.731817   -0.000474
      8          1           0       -3.949722    0.687997    0.004855
      9          1           0       -2.117684    2.277853    0.003146
     10          6           0        0.523277    1.675970   -0.000838
     11          6           0        1.037520   -1.049540   -0.005815
     12          1           0       -1.209571   -2.561488   -0.002969
     13          1           0       -3.491557   -1.742657    0.001855
     14          6           0        2.075647   -0.167029   -0.006957
     15          6           0        1.802523    1.213252   -0.004421
     16          1           0        1.241542   -2.102080   -0.008902
     17          1           0        2.616247    1.911262   -0.004885
     18          6           0        3.518141   -0.662928    0.007977
     19          1           0        4.166303    0.038106   -0.503055
     20          1           0        3.865071   -0.769310    1.030284
     21          1           0        3.594581   -1.623665   -0.484581
 ---------------------------------------------------------------------
 Rotational constants (GHZ):           2.8473667           0.8327718           0.6469050
 Standard basis: 3-21G (6D, 7F)
 There are   119 symmetry adapted cartesian basis functions of A   symmetry.
 There are   119 symmetry adapted basis functions of A   symmetry.
   119 basis functions,   195 primitive gaussians,   119 cartesian basis functions
    38 alpha electrons       38 beta electrons
       nuclear repulsion energy       544.8886297839 Hartrees.
 NAtoms=   21 NActive=   21 NUniq=   21 SFac= 1.00D+00 NAtFMM=   60 NAOKFM=F Big=F
 Integral buffers will be    131072 words long.
 Raffenetti 1 integral format.
 Two-electron integral symmetry is turned on.
 One-electron integrals computed using PRISM.
 NBasis=   119 RedAO= T EigKep=  9.33D-04  NBF=   119
 NBsUse=   119 1.00D-06 EigRej= -1.00D+00 NBFU=   119
 Initial guess from the checkpoint file:  "napthal_3-21G.chk"
 B after Tr=    -0.000000   -0.000000   -0.000000
         Rot=    1.000000    0.000222    0.000045   -0.000270 Ang=   0.04 deg.
 ExpMin= 1.83D-01 ExpMax= 1.72D+02 ExpMxC= 1.72D+02 IAcc=3 IRadAn=         5 AccDes= 0.00D+00
 Harris functional with IExCor=  205 and IRadAn=       5 diagonalized for initial guess.
 HarFok:  IExCor=  205 AccDes= 0.00D+00 IRadAn=         5 IDoV= 1 UseB2=F ITyADJ=14
 ICtDFT=  3500011 ScaDFX=  1.000000  1.000000  1.000000  1.000000
 FoFCou: FMM=F IPFlag=           0 FMFlag=      100000 FMFlg1=           0
         NFxFlg=           0 DoJE=T BraDBF=F KetDBF=T FulRan=T
         wScrn=  0.000000 ICntrl=       500 IOpCl=  0 I1Cent=   200000004 NGrid=           0
         NMat0=    1 NMatS0=      1 NMatT0=    0 NMatD0=    1 NMtDS0=    0 NMtDT0=    0
 Petite list used in FoFCou.
 Keep R1 ints in memory in canonical form, NReq=26359536.
 Requested convergence on RMS density matrix=1.00D-08 within 128 cycles.
 Requested convergence on MAX density matrix=1.00D-06.
 Requested convergence on             energy=1.00D-06.
 No special actions if energy rises.
 SCF Done:  E(RHF) =  -420.036278731     A.U. after   13 cycles
            NFock= 13  Conv=0.25D-08     -V/T= 2.0016
 Calling FoFJK, ICntrl=      2127 FMM=F ISym2X=0 I1Cent= 0 IOpClX= 0 NMat=1 NMatS=1 NMatT=0.
 ***** Axes restored to original set *****
 -------------------------------------------------------------------
 Center     Atomic                   Forces (Hartrees/Bohr)
 Number     Number              X              Y              Z
 -------------------------------------------------------------------
      1        6           0.005220167   -0.005652289    0.000110834
      2        6          -0.004785951   -0.001789451   -0.000051926
      3        6          -0.001685853    0.002342901   -0.000078358
      4        6           0.002310281   -0.002125094   -0.000010959
      5        6          -0.004264477   -0.003197729   -0.000028650
      6        6          -0.002378512    0.007566340   -0.000087745
      7        1          -0.000688522   -0.001312928    0.000018188
      8        1          -0.001041511    0.000302331   -0.000011971
      9        1           0.001846946    0.000133466    0.000023229
     10        6           0.004561680    0.004199704   -0.000058825
     11        6           0.004569727    0.000207418    0.000210256
     12        1           0.000885064    0.001485537   -0.000005455
     13        1          -0.000317737   -0.000945822    0.000003587
     14        6          -0.004110669    0.010591299    0.000205760
     15        6           0.001952463   -0.009243418   -0.000439734
     16        1          -0.002183296    0.000097867    0.000174034
     17        1           0.000630560    0.000925616    0.000182090
     18        6          -0.002154326   -0.006013132    0.000328357
     19        1           0.000474090    0.000924030    0.000034098
     20        1           0.000788923    0.000610489   -0.000167305
     21        1           0.000370951    0.000892864   -0.000349504
 -------------------------------------------------------------------
 Cartesian Forces:  Max     0.010591299 RMS     0.002910764

 GradGradGradGradGradGradGradGradGradGradGradGradGradGradGradGradGradGrad
 Berny optimization.
 Using GEDIIS/GDIIS optimizer.
 FormGI is forming the generalized inverse of G from B-inverse, IUseBI=4.
 Internal  Forces:  Max     0.007031446 RMS     0.001309328
 Search for a local minimum.
 Step number   2 out of a maximum of  118
 All quantities printed in internal units (Hartrees-Bohrs-Radians)
 Mixed Optimization -- RFO/linear search
 Update second derivatives using D2CorX and points    1    2
 DE= -8.58D-03 DEPred=-8.15D-03 R= 1.05D+00
 TightC=F SS=  1.41D+00  RLast= 2.01D-01 DXNew= 5.0454D-01 6.0344D-01
 Trust test= 1.05D+00 RLast= 2.01D-01 DXMaxT set to 5.05D-01
 ITU=  1  0
 Use linear search instead of GDIIS.
     Eigenvalues ---    0.00237   0.01333   0.02070   0.02070   0.02070
     Eigenvalues ---    0.02070   0.02070   0.02070   0.02070   0.02070
     Eigenvalues ---    0.02070   0.02070   0.02070   0.02070   0.02070
     Eigenvalues ---    0.02071   0.07027   0.07083   0.15545   0.16000
     Eigenvalues ---    0.16000   0.16000   0.16000   0.16000   0.16000
     Eigenvalues ---    0.16000   0.16000   0.16102   0.22001   0.22282
     Eigenvalues ---    0.22671   0.23480   0.24369   0.24716   0.24954
     Eigenvalues ---    0.28151   0.36812   0.37230   0.37230   0.37230
     Eigenvalues ---    0.37230   0.37230   0.37230   0.37230   0.37230
     Eigenvalues ---    0.37301   0.40716   0.40985   0.41190   0.41639
     Eigenvalues ---    0.43146   0.45389   0.45389   0.45389   0.45389
     Eigenvalues ---    0.45389   0.49075
 RFO step:  Lambda=-6.78613442D-04 EMin= 2.36652860D-03
 Quartic linear search produced a step of  0.06625.
 Iteration  1 RMS(Cart)=  0.02485550 RMS(Int)=  0.00083148
 Iteration  2 RMS(Cart)=  0.00086194 RMS(Int)=  0.00001126
 Iteration  3 RMS(Cart)=  0.00000078 RMS(Int)=  0.00001124
 Variable       Old X    -DE/DX   Delta X   Delta X   Delta X     New X
                                 (Linear)    (Quad)   (Total)
    R1        2.57000  -0.00099  -0.00518   0.00062  -0.00456   2.56544
    R2        2.65450   0.00607   0.00041   0.01442   0.01483   2.66933
    R3        2.02505   0.00026   0.00020   0.00062   0.00082   2.02587
    R4        2.67117   0.00257   0.00152   0.00504   0.00656   2.67773
    R5        2.02557   0.00080   0.00024   0.00216   0.00239   2.02796
    R6        2.67052  -0.00136   0.00147  -0.00480  -0.00332   2.66720
    R7        2.66903   0.00297   0.00138   0.00606   0.00743   2.67646
    R8        2.67196   0.00290   0.00157   0.00577   0.00734   2.67930
    R9        2.67285   0.00168   0.00163   0.00286   0.00450   2.67735
   R10        2.57080  -0.00150  -0.00513  -0.00060  -0.00574   2.56506
   R11        2.02534   0.00082   0.00022   0.00223   0.00245   2.02780
   R12        2.02515   0.00032   0.00021   0.00081   0.00101   2.02617
   R13        2.02569   0.00077   0.00024   0.00207   0.00232   2.02801
   R14        2.57072  -0.00238  -0.00514  -0.00263  -0.00777   2.56295
   R15        2.57484  -0.00112  -0.00486   0.00013  -0.00473   2.57011
   R16        2.02604   0.00117   0.00027   0.00320   0.00346   2.02951
   R17        2.65893   0.00703   0.00071   0.01654   0.01724   2.67618
   R18        2.88264  -0.00336  -0.00182  -0.01144  -0.01327   2.86937
   R19        2.02595   0.00064   0.00026   0.00167   0.00194   2.02788
   R20        2.04642   0.00034   0.00162   0.00008   0.00170   2.04812
   R21        2.04997   0.00047   0.00185   0.00033   0.00218   2.05216
   R22        2.04534   0.00029   0.00155  -0.00002   0.00152   2.04686
    A1        2.09906  -0.00042   0.00031  -0.00125  -0.00094   2.09812
    A2        2.09029   0.00128  -0.00027   0.00779   0.00752   2.09780
    A3        2.09384  -0.00086  -0.00004  -0.00654  -0.00658   2.08727
    A4        2.10643   0.00030   0.00080   0.00072   0.00151   2.10795
    A5        2.09201   0.00154  -0.00016   0.01069   0.01053   2.10254
    A6        2.08474  -0.00184  -0.00064  -0.01140  -0.01204   2.07270
    A7        2.07857   0.00005  -0.00105   0.00025  -0.00080   2.07778
    A8        2.13537  -0.00013   0.00271  -0.00085   0.00186   2.13723
    A9        2.06924   0.00008  -0.00167   0.00060  -0.00106   2.06818
   A10        2.07231   0.00046  -0.00146   0.00227   0.00080   2.07312
   A11        2.07654   0.00047  -0.00118   0.00192   0.00075   2.07729
   A12        2.13433  -0.00093   0.00265  -0.00419  -0.00155   2.13278
   A13        2.10720   0.00025   0.00085   0.00043   0.00128   2.10848
   A14        2.08400  -0.00166  -0.00069  -0.01023  -0.01092   2.07307
   A15        2.09198   0.00142  -0.00016   0.00981   0.00965   2.10163
   A16        2.10279  -0.00063   0.00056  -0.00241  -0.00186   2.10093
   A17        2.09185  -0.00064  -0.00017  -0.00522  -0.00538   2.08646
   A18        2.08855   0.00127  -0.00039   0.00763   0.00724   2.09579
   A19        2.08333  -0.00145  -0.00073  -0.00873  -0.00946   2.07387
   A20        2.10844   0.00033   0.00093   0.00084   0.00177   2.11021
   A21        2.09141   0.00111  -0.00020   0.00788   0.00769   2.09910
   A22        2.11894   0.00051   0.00163   0.00107   0.00270   2.12164
   A23        2.08037  -0.00212  -0.00093  -0.01284  -0.01377   2.06660
   A24        2.08388   0.00161  -0.00070   0.01176   0.01106   2.09494
   A25        2.07999  -0.00101  -0.00095  -0.00285  -0.00381   2.07618
   A26        2.10588   0.00245   0.00076   0.00951   0.01026   2.11614
   A27        2.09722  -0.00145   0.00019  -0.00673  -0.00655   2.09067
   A28        2.11322  -0.00038   0.00125  -0.00158  -0.00034   2.11288
   A29        2.08552   0.00112  -0.00059   0.00696   0.00638   2.09190
   A30        2.08445  -0.00074  -0.00066  -0.00538  -0.00603   2.07841
   A31        1.92935   0.00103   0.00124   0.00602   0.00723   1.93658
   A32        1.92147   0.00068   0.00072   0.00347   0.00417   1.92564
   A33        1.92932   0.00097   0.00124   0.00600   0.00720   1.93652
   A34        1.89313  -0.00102  -0.00116  -0.00678  -0.00796   1.88518
   A35        1.89399  -0.00087  -0.00110  -0.00392  -0.00507   1.88892
   A36        1.89572  -0.00088  -0.00099  -0.00532  -0.00633   1.88939
    D1       -0.00067   0.00000  -0.00004   0.00018   0.00014  -0.00054
    D2        3.14133  -0.00001  -0.00002  -0.00019  -0.00021   3.14112
    D3        3.14103   0.00000  -0.00004   0.00021   0.00017   3.14120
    D4       -0.00015  -0.00000  -0.00001  -0.00017  -0.00018  -0.00033
    D5       -0.00003  -0.00000  -0.00000  -0.00018  -0.00018  -0.00020
    D6       -3.14140  -0.00000   0.00001  -0.00007  -0.00006  -3.14146
    D7        3.14145  -0.00000  -0.00001  -0.00020  -0.00021   3.14124
    D8        0.00008  -0.00000   0.00001  -0.00010  -0.00009  -0.00001
    D9        0.00071   0.00000   0.00005  -0.00001   0.00004   0.00075
   D10        3.14141  -0.00002  -0.00001  -0.00088  -0.00090   3.14051
   D11       -3.14129   0.00001   0.00002   0.00037   0.00039  -3.14091
   D12       -0.00059  -0.00002  -0.00004  -0.00051  -0.00055  -0.00114
   D13       -0.00005  -0.00000  -0.00000  -0.00018  -0.00018  -0.00024
   D14        3.13944  -0.00000  -0.00014   0.00025   0.00012   3.13956
   D15       -3.14079   0.00002   0.00005   0.00067   0.00072  -3.14007
   D16       -0.00129   0.00002  -0.00009   0.00110   0.00101  -0.00028
   D17       -0.00010  -0.00001  -0.00001  -0.00046  -0.00047  -0.00057
   D18       -3.13998   0.00000   0.00011  -0.00022  -0.00011  -3.14009
   D19        3.14061  -0.00004  -0.00007  -0.00133  -0.00140   3.13921
   D20        0.00073  -0.00002   0.00005  -0.00109  -0.00104  -0.00031
   D21       -0.00064   0.00000  -0.00004   0.00018   0.00014  -0.00049
   D22        3.14110   0.00000  -0.00003   0.00028   0.00025   3.14134
   D23       -3.14006  -0.00000   0.00010  -0.00026  -0.00016  -3.14023
   D24        0.00167   0.00000   0.00011  -0.00017  -0.00006   0.00161
   D25        0.00127   0.00002   0.00008   0.00015   0.00024   0.00151
   D26       -3.13970   0.00004   0.00013   0.00139   0.00150  -3.13820
   D27        3.14069   0.00002  -0.00006   0.00060   0.00055   3.14124
   D28       -0.00028   0.00004  -0.00002   0.00184   0.00181   0.00153
   D29        0.00069   0.00000   0.00005  -0.00001   0.00003   0.00072
   D30       -3.14113  -0.00000   0.00003  -0.00012  -0.00009  -3.14121
   D31       -3.14105  -0.00000   0.00004  -0.00011  -0.00007  -3.14112
   D32        0.00033  -0.00000   0.00002  -0.00021  -0.00019   0.00014
   D33       -0.00008  -0.00002  -0.00001  -0.00016  -0.00018  -0.00026
   D34       -3.14120  -0.00004   0.00003  -0.00152  -0.00152   3.14047
   D35       -3.13996   0.00000   0.00011   0.00009   0.00020  -3.13975
   D36        0.00211  -0.00002   0.00014  -0.00126  -0.00113   0.00098
   D37       -0.00063  -0.00005  -0.00004  -0.00141  -0.00145  -0.00208
   D38        3.12656  -0.00019  -0.00100  -0.00711  -0.00813   3.11843
   D39        3.14035  -0.00007  -0.00008  -0.00266  -0.00274   3.13760
   D40       -0.01565  -0.00021  -0.00104  -0.00836  -0.00942  -0.02507
   D41        0.00002   0.00005   0.00000   0.00143   0.00144   0.00146
   D42        3.14114   0.00008  -0.00003   0.00279   0.00277  -3.13928
   D43       -3.12723   0.00015   0.00095   0.00696   0.00787  -3.11936
   D44        0.01388   0.00018   0.00092   0.00832   0.00920   0.02308
   D45        2.61592  -0.00006  -0.00014  -0.07200  -0.07212   2.54381
   D46       -1.57598  -0.00023  -0.00034  -0.07437  -0.07471  -1.65069
   D47        0.51850  -0.00027  -0.00034  -0.07493  -0.07527   0.44323
   D48       -0.54022  -0.00019  -0.00110  -0.07772  -0.07882  -0.61904
   D49        1.55106  -0.00037  -0.00131  -0.08009  -0.08141   1.46965
   D50       -2.63765  -0.00040  -0.00130  -0.08065  -0.08197  -2.71962
         Item               Value     Threshold  Converged?
 Maximum Force            0.007031     0.000450     NO 
 RMS     Force            0.001309     0.000300     NO 
 Maximum Displacement     0.135545     0.001800     NO 
 RMS     Displacement     0.024868     0.001200     NO 
 Predicted change in Energy=-4.076075D-04
 GradGradGradGradGradGradGradGradGradGradGradGradGradGradGradGradGradGrad

                          Input orientation:                          
 ---------------------------------------------------------------------
 Center     Atomic      Atomic             Coordinates (Angstroms)
 Number     Number       Type             X           Y           Z
 ---------------------------------------------------------------------
      1          6           0       -3.579883   -0.183564   -0.007165
      2          6           0       -2.222362   -0.184432    0.004419
      3          6           0       -1.496521    1.032540    0.007489
      4          6           0       -2.205149    2.253148   -0.000764
      5          6           0       -3.622531    2.219545   -0.012165
      6          6           0       -4.289878    1.037556   -0.015700
      7          1           0        0.463224    0.148104    0.029320
      8          1           0       -4.119657   -1.109804   -0.009755
      9          1           0       -1.678870   -1.109753    0.011369
     10          6           0       -0.080841    1.073106    0.020754
     11          6           0       -1.478836    3.469591    0.004830
     12          1           0       -4.161243    3.147564   -0.018204
     13          1           0       -5.361978    1.025748   -0.024700
     14          6           0       -0.118948    3.486677    0.016179
     15          6           0        0.582147    2.256259    0.025086
     16          1           0       -2.027961    4.392554    0.001664
     17          1           0        1.655140    2.267351    0.036218
     18          6           0        0.652530    4.794270   -0.007951
     19          1           0        1.565107    4.716707    0.571577
     20          1           0        0.922995    5.054023   -1.027105
     21          1           0        0.058590    5.602068    0.401826
 ---------------------------------------------------------------------
                    Distance matrix (angstroms):
                    1          2          3          4          5
     1  C    0.000000
     2  C    1.357571   0.000000
     3  C    2.412369   1.416994   0.000000
     4  C    2.797768   2.437646   1.411420   0.000000
     5  C    2.403493   2.782059   2.435013   1.417826   0.000000
     6  C    1.412551   2.401725   2.793458   2.413293   1.357374
     7  H    4.056853   2.706210   2.150187   3.398872   4.581046
     8  H    1.072046   2.110982   3.386853   3.869737   3.366260
     9  H    2.114716   1.073150   2.150042   3.403853   3.855204
    10  C    3.717970   2.483502   1.416324   2.430154   3.722765
    11  C    4.214272   3.728902   2.437117   1.416790   2.481599
    12  H    3.381497   3.855122   3.402166   2.150951   1.073064
    13  H    2.153742   3.364903   3.865597   3.387131   2.109736
    14  C    5.044729   4.231019   2.814351   2.423657   3.725791
    15  C    4.824549   3.717885   2.412190   2.787417   4.205003
    16  H    4.832121   4.581112   3.401787   2.146732   2.695331
    17  H    5.780514   4.587730   3.385049   3.860492   5.278109
    18  C    6.533924   5.749141   4.332352   3.824092   4.990528
    19  H    7.128712   6.219947   4.823365   4.539992   5.786896
    20  H    6.982014   6.196670   4.805910   4.322449   5.452172
    21  H    6.846847   6.232516   4.842981   4.062249   5.016324
                    6          7          8          9         10
     6  C    0.000000
     7  H    4.835818   0.000000
     8  H    2.154105   4.752542   0.000000
     9  H    3.380685   2.484168   2.440878   0.000000
    10  C    4.209346   1.073177   4.591085   2.705302   0.000000
    11  C    3.717146   3.847658   5.286303   4.583715   2.774488
    12  H    2.113927   5.512234   4.257580   4.928265   4.577617
    13  H    1.072203   5.891193   2.470661   4.257576   5.281545
    14  C    4.836927   3.388978   6.093766   4.853921   2.413876
    15  C    5.022303   2.111512   5.782608   4.054925   1.356253
    16  H    4.046304   4.921598   5.886532   5.513377   3.848425
    17  H    6.071106   2.431444   6.689960   4.745637   2.107152
    18  C    6.208088   4.650171   7.591565   6.347699   3.792851
    19  H    6.939877   4.730785   8.161049   6.692148   4.035886
    20  H    6.658003   5.039392   8.028456   6.770543   4.237144
    21  H    6.318092   5.481626   7.916842   6.944045   4.547104
                   11         12         13         14         15
    11  C    0.000000
    12  H    2.701766   0.000000
    13  H    4.588249   2.438014   0.000000
    14  C    1.360042   4.056640   5.791995   0.000000
    15  C    2.391701   4.826597   6.070359   1.416171   0.000000
    16  H    1.073969   2.470078   4.738327   2.113091   3.372976
    17  H    3.356809   5.882860   7.126376   2.152800   1.073108
    18  C    2.509514   5.087647   7.097630   1.518407   2.539202
    19  H    3.337977   5.966669   7.871673   2.158120   2.705303
    20  H    3.056814   5.522857   7.532112   2.151897   3.008449
    21  H    2.658712   4.899797   7.106842   2.157574   3.407416
                   16         17         18         19         20
    16  H    0.000000
    17  H    4.252401   0.000000
    18  C    2.710443   2.718915   0.000000
    19  H    3.652399   2.508796   1.083820   0.000000
    20  H    3.194378   3.071194   1.085954   1.755526   0.000000
    21  H    2.444740   3.715236   1.083153   1.755640   1.757667
                   21
    21  H    0.000000
 Stoichiometry    C11H10
 Framework group  C1[X(C11H10)]
 Deg. of freedom    57
 Full point group                 C1      NOp   1
 Largest Abelian subgroup         C1      NOp   1
 Largest concise Abelian subgroup C1      NOp   1
                         Standard orientation:                         
 ---------------------------------------------------------------------
 Center     Atomic      Atomic             Coordinates (Angstroms)
 Number     Number       Type             X           Y           Z
 ---------------------------------------------------------------------
      1          6           0       -2.940227    0.339947    0.005256
      2          6           0       -1.913383    1.227972    0.004161
      3          6           0       -0.568601    0.781407    0.000463
      4          6           0       -0.307086   -0.605570   -0.003008
      5          6           0       -1.401764   -1.506631   -0.002381
      6          6           0       -2.679413   -1.048313    0.002054
      7          1           0        0.336507    2.731812   -0.001704
      8          1           0       -3.954159    0.688105    0.008422
      9          1           0       -2.106867    2.283534    0.006147
     10          6           0        0.529346    1.676102   -0.002077
     11          6           0        1.037714   -1.051404   -0.009223
     12          1           0       -1.202896   -2.561103   -0.005255
     13          1           0       -3.498527   -1.740173    0.002834
     14          6           0        2.078084   -0.175422   -0.010158
     15          6           0        1.804458    1.214061   -0.007349
     16          1           0        1.225403   -2.108829   -0.015025
     17          1           0        2.623785    1.907066   -0.010251
     18          6           0        3.516570   -0.660984    0.013232
     19          1           0        4.157965   -0.000659   -0.558827
     20          1           0        3.888499   -0.689884    1.033100
     21          1           0        3.596099   -1.656858   -0.405252
 ---------------------------------------------------------------------
 Rotational constants (GHZ):           2.8432925           0.8316400           0.6460090
 Standard basis: 3-21G (6D, 7F)
 There are   119 symmetry adapted cartesian basis functions of A   symmetry.
 There are   119 symmetry adapted basis functions of A   symmetry.
   119 basis functions,   195 primitive gaussians,   119 cartesian basis functions
    38 alpha electrons       38 beta electrons
       nuclear repulsion energy       544.4994626450 Hartrees.
 NAtoms=   21 NActive=   21 NUniq=   21 SFac= 1.00D+00 NAtFMM=   60 NAOKFM=F Big=F
 Integral buffers will be    131072 words long.
 Raffenetti 1 integral format.
 Two-electron integral symmetry is turned on.
 One-electron integrals computed using PRISM.
 NBasis=   119 RedAO= T EigKep=  9.47D-04  NBF=   119
 NBsUse=   119 1.00D-06 EigRej= -1.00D+00 NBFU=   119
 Initial guess from the checkpoint file:  "napthal_3-21G.chk"
 B after Tr=     0.000000    0.000000    0.000000
         Rot=    0.999999    0.001110   -0.000079    0.000358 Ang=   0.13 deg.
 ExpMin= 1.83D-01 ExpMax= 1.72D+02 ExpMxC= 1.72D+02 IAcc=3 IRadAn=         5 AccDes= 0.00D+00
 Harris functional with IExCor=  205 and IRadAn=       5 diagonalized for initial guess.
 HarFok:  IExCor=  205 AccDes= 0.00D+00 IRadAn=         5 IDoV= 1 UseB2=F ITyADJ=14
 ICtDFT=  3500011 ScaDFX=  1.000000  1.000000  1.000000  1.000000
 FoFCou: FMM=F IPFlag=           0 FMFlag=      100000 FMFlg1=           0
         NFxFlg=           0 DoJE=T BraDBF=F KetDBF=T FulRan=T
         wScrn=  0.000000 ICntrl=       500 IOpCl=  0 I1Cent=   200000004 NGrid=           0
         NMat0=    1 NMatS0=      1 NMatT0=    0 NMatD0=    1 NMtDS0=    0 NMtDT0=    0
 Petite list used in FoFCou.
 Keep R1 ints in memory in canonical form, NReq=26359589.
 Requested convergence on RMS density matrix=1.00D-08 within 128 cycles.
 Requested convergence on MAX density matrix=1.00D-06.
 Requested convergence on             energy=1.00D-06.
 No special actions if energy rises.
 SCF Done:  E(RHF) =  -420.036784722     A.U. after   12 cycles
            NFock= 12  Conv=0.21D-08     -V/T= 2.0017
 Calling FoFJK, ICntrl=      2127 FMM=F ISym2X=0 I1Cent= 0 IOpClX= 0 NMat=1 NMatS=1 NMatT=0.
 ***** Axes restored to original set *****
 -------------------------------------------------------------------
 Center     Atomic                   Forces (Hartrees/Bohr)
 Number     Number              X              Y              Z
 -------------------------------------------------------------------
      1        6           0.000683991   -0.001102366    0.000005126
      2        6           0.000046589   -0.000592620    0.000003108
      3        6          -0.002150105    0.002631469   -0.000025177
      4        6           0.001629999   -0.003095354    0.000067506
      5        6          -0.000490947    0.000475213   -0.000006862
[...]
      5          6           0       -3.625311    2.217966    0.030887
      6          6           0       -4.291390    1.034681    0.025846
      7          1           0        0.461666    0.152262   -0.050138
      8          1           0       -4.119244   -1.111324   -0.002290
      9          1           0       -1.674188   -1.106253   -0.035861
     10          6           0       -0.081064    1.077776   -0.031557
     11          6           0       -1.484398    3.473529    0.016516
     12          1           0       -4.163119    3.146155    0.049421
     13          1           0       -5.363114    1.017934    0.040378
     14          6           0       -0.127065    3.493739   -0.001911
     15          6           0        0.578708    2.260643   -0.026420
     16          1           0       -2.037594    4.393395    0.035167
     17          1           0        1.651575    2.279108   -0.040966
     18          6           0        0.657441    4.790107    0.002840
     19          1           0        1.304564    4.841330    0.872617
     20          1           0        1.280027    4.862622   -0.883182
     21          1           0       -0.004416    5.646742    0.022479
 ---------------------------------------------------------------------
                    Distance matrix (angstroms):
                    1          2          3          4          5
     1  C    0.000000
     2  C    1.357864   0.000000
     3  C    2.411570   1.416926   0.000000
     4  C    2.796382   2.435158   1.406845   0.000000
     5  C    2.404244   2.782109   2.432262   1.417827   0.000000
     6  C    1.413296   2.402320   2.791787   2.412795   1.357885
     7  H    4.055027   2.703970   2.151843   3.396804   4.580075
     8  H    1.071834   2.112812   3.387214   3.868117   3.365895
     9  H    2.115877   1.073001   2.149688   3.400365   3.855097
    10  C    3.719192   2.484104   1.419540   2.429747   3.723657
    11  C    4.216263   3.730509   2.437523   1.420115   2.481966
    12  H    3.382973   3.855003   3.398313   2.150365   1.072900
    13  H    2.152545   3.364229   3.863651   3.387837   2.111901
    14  C    5.045124   4.231610   2.814971   2.423513   3.723762
    15  C    4.824009   3.716529   2.412439   2.786997   4.204626
    16  H    4.831614   4.580715   3.400293   2.148681   2.693205
    17  H    5.782299   4.589395   3.387794   3.860045   5.277729
    18  C    6.534904   5.746487   4.329645   3.828168   4.995864
    19  H    7.062440   6.202430   4.809068   4.448129   5.647496
    20  H    7.062362   6.202427   4.809067   4.448009   5.647306
    21  H    6.840641   6.237430   4.847106   4.047576   4.986728
                    6          7          8          9         10
     6  C    0.000000
     7  H    4.834872   0.000000
     8  H    2.153082   4.752229   0.000000
     9  H    3.381886   2.479100   2.445292   0.000000
    10  C    4.210938   1.073069   4.593465   2.703340   0.000000
    11  C    3.718504   3.849990   5.288067   4.584012   2.776921
    12  H    2.115498   5.510167   4.258019   4.927984   4.576890
    13  H    1.071953   5.889452   2.466328   4.257482   5.282878
    14  C    4.836253   3.393288   6.094597   4.853316   2.416583
    15  C    5.022307   2.111760   5.782863   4.051125   1.354437
    16  H    4.044829   4.923494   5.885287   5.512099   3.850427
    17  H    6.072223   2.437097   6.693196   4.745671   2.108394
    18  C    6.212462   4.642277   7.592341   6.340745   3.785231
    19  H    6.820726   4.852763   8.100447   6.713571   4.111184
    20  H    6.820568   4.852954   8.100378   6.713628   4.111312
    21  H    6.296766   5.514691   7.912261   6.956614   4.569928
                   11         12         13         14         15
    11  C    0.000000
    12  H    2.698852   0.000000
    13  H    4.590746   2.443234   0.000000
    14  C    1.357609   4.051318   5.792030   0.000000
    15  C    2.393605   4.824397   6.070752   1.421001   0.000000
    16  H    1.073558   2.464480   4.738443   2.112079   3.376013
    17  H    3.356228   5.879677   7.127624   2.154161   1.073124
    18  C    2.514167   5.093382   7.104771   1.515269   2.530858
    19  H    3.222126   5.783323   7.731035   2.151827   2.827557
    20  H    3.221968   5.783065   7.730841   2.151832   2.827752
    21  H    2.629303   4.852676   7.081089   2.156631   3.436290
                   16         17         18         19         20
    16  H    0.000000
    17  H    4.252760   0.000000
    18  C    2.724269   2.700988   0.000000
    19  H    3.474477   2.742267   1.085313   0.000000
    20  H    3.474212   2.742611   1.085314   1.756099   0.000000
    21  H    2.388484   3.753303   1.082711   1.756375   1.756377
                   21
    21  H    0.000000
 Stoichiometry    C11H10
 Framework group  C1[X(C11H10)]
 Deg. of freedom    57
 Full point group                 C1      NOp   1
 Largest Abelian subgroup         C1      NOp   1
 Largest concise Abelian subgroup C1      NOp   1
                         Standard orientation:                         
 ---------------------------------------------------------------------
 Center     Atomic      Atomic             Coordinates (Angstroms)
 Number     Number       Type             X           Y           Z
 ---------------------------------------------------------------------
      1          6           0       -2.940238    0.344731    0.000005
      2          6           0       -1.910845    1.230250   -0.000001
      3          6           0       -0.567952    0.778237   -0.000001
      4          6           0       -0.309986   -0.604754   -0.000002
      5          6           0       -1.404945   -1.505476   -0.000001
      6          6           0       -2.682308   -1.044829   -0.000001
      7          1           0        0.339503    2.729379    0.000009
      8          1           0       -3.954081    0.692512    0.000006
      9          1           0       -2.099718    2.286498    0.000005
     10          6           0        0.533311    1.673956    0.000003
     11          6           0        1.036177   -1.057054   -0.000007
     12          1           0       -1.205662   -2.559705    0.000006
     13          1           0       -3.504606   -1.732512    0.000007
     14          6           0        2.076961   -0.185349   -0.000008
     15          6           0        1.805626    1.209506   -0.000010
     16          1           0        1.218371   -2.115038   -0.000006
     17          1           0        2.629913    1.896635    0.000000
     18          6           0        3.517862   -0.654224    0.000010
     19          1           0        4.038982   -0.285986   -0.877907
     20          1           0        4.038831   -0.286400    0.878193
     21          1           0        3.576482   -1.735347   -0.000241
 ---------------------------------------------------------------------
 Rotational constants (GHZ):           2.8485267           0.8310826           0.6459287

 **********************************************************************

            Population analysis using the SCF Density.

 **********************************************************************

 Orbital symmetries:
       Occupied  (A) (A) (A) (A) (A) (A) (A) (A) (A) (A) (A) (A)
                 (A) (A) (A) (A) (A) (A) (A) (A) (A) (A) (A) (A)
                 (A) (A) (A) (A) (A) (A) (A) (A) (A) (A) (A) (A)
                 (A) (A)
       Virtual   (A) (A) (A) (A) (A) (A) (A) (A) (A) (A) (A) (A)
                 (A) (A) (A) (A) (A) (A) (A) (A) (A) (A) (A) (A)
                 (A) (A) (A) (A) (A) (A) (A) (A) (A) (A) (A) (A)
                 (A) (A) (A) (A) (A) (A) (A) (A) (A) (A) (A) (A)
                 (A) (A) (A) (A) (A) (A) (A) (A) (A) (A) (A) (A)
                 (A) (A) (A) (A) (A) (A) (A) (A) (A) (A) (A) (A)
                 (A) (A) (A) (A) (A) (A) (A) (A) (A)
 The electronic state is 1-A.
 Alpha  occ. eigenvalues --  -11.18763 -11.18678 -11.18513 -11.17822 -11.17725
 Alpha  occ. eigenvalues --  -11.17626 -11.17596 -11.17488 -11.17423 -11.17222
 Alpha  occ. eigenvalues --  -11.16479  -1.18257  -1.12219  -1.05422  -1.02872
 Alpha  occ. eigenvalues --   -0.99197  -0.93884  -0.84972  -0.82220  -0.81707
 Alpha  occ. eigenvalues --   -0.70898  -0.69882  -0.67185  -0.62412  -0.61739
 Alpha  occ. eigenvalues --   -0.59476  -0.58568  -0.58155  -0.55625  -0.54108
 Alpha  occ. eigenvalues --   -0.53233  -0.51256  -0.48123  -0.47057  -0.44396
 Alpha  occ. eigenvalues --   -0.38581  -0.31671  -0.28993
 Alpha virt. eigenvalues --    0.10463   0.13427   0.19936   0.26593   0.28185
 Alpha virt. eigenvalues --    0.28329   0.29216   0.31204   0.33428   0.35610
 Alpha virt. eigenvalues --    0.36308   0.36915   0.37209   0.39455   0.43332
 Alpha virt. eigenvalues --    0.43910   0.46004   0.50259   0.52221   0.52891
 Alpha virt. eigenvalues --    0.55637   0.56338   0.61618   0.75409   0.77520
 Alpha virt. eigenvalues --    0.81657   0.86171   0.87414   0.90884   0.93487
 Alpha virt. eigenvalues --    0.95787   0.96973   0.98706   0.99908   1.00044
 Alpha virt. eigenvalues --    1.03192   1.03486   1.05319   1.06559   1.09158
 Alpha virt. eigenvalues --    1.09207   1.10144   1.12534   1.13285   1.13603
 Alpha virt. eigenvalues --    1.16832   1.17926   1.21449   1.22437   1.27114
 Alpha virt. eigenvalues --    1.29136   1.30421   1.32635   1.34445   1.35643
 Alpha virt. eigenvalues --    1.35664   1.36670   1.40661   1.46593   1.47738
 Alpha virt. eigenvalues --    1.52734   1.54937   1.59790   1.62422   1.64040
 Alpha virt. eigenvalues --    1.71085   1.72821   1.78251   1.79649   1.80439
 Alpha virt. eigenvalues --    1.81045   1.86354   1.86559   1.89872   2.06599
 Alpha virt. eigenvalues --    2.21006   2.22116   2.23834   2.26715   2.74268
 Alpha virt. eigenvalues --    2.81394
          Condensed to atoms (all electrons):
               1          2          3          4          5          6
     1  C    5.161820   0.526056  -0.114639  -0.000709  -0.113792   0.440911
     2  C    0.526056   5.107885   0.418662  -0.065055  -0.005740  -0.114481
     3  C   -0.114639   0.418662   5.245151   0.453690  -0.065943  -0.000613
     4  C   -0.000709  -0.065055   0.453690   5.223480   0.418286  -0.113738
     5  C   -0.113792  -0.005740  -0.065943   0.418286   5.114763   0.525166
     6  C    0.440911  -0.114481  -0.000613  -0.113738   0.525166   5.158995
     7  H    0.000048   0.001365  -0.040035   0.002121  -0.000063   0.000008
     8  H    0.398469  -0.033495   0.002859  -0.000126   0.002404  -0.031948
     9  H   -0.028756   0.400587  -0.039962   0.002097  -0.000068   0.002283
    10  C    0.001065  -0.047470   0.416499  -0.067504   0.001760   0.000404
    11  C    0.000375   0.001824  -0.064391   0.421471  -0.049466   0.001086
    12  H    0.002281  -0.000074   0.002121  -0.040056   0.400859  -0.029072
    13  H   -0.031978   0.002429  -0.000129   0.002835  -0.033569   0.398272
    14  C   -0.000008   0.000281  -0.003359  -0.114240   0.001401  -0.000068
    15  C   -0.000060   0.001227  -0.112825  -0.003327   0.000344  -0.000012
    16  H    0.000009  -0.000066   0.002116  -0.037183   0.001152   0.000045
    17  H    0.000001  -0.000050   0.002859  -0.000083   0.000001  -0.000000
    18  C   -0.000000   0.000001   0.000147   0.002437  -0.000057   0.000000
    19  H   -0.000000  -0.000000   0.000004  -0.000063   0.000001  -0.000000
    20  H   -0.000000  -0.000000   0.000004  -0.000063   0.000001  -0.000000
    21  H    0.000000  -0.000000  -0.000002   0.000243  -0.000002  -0.000000
               7          8          9         10         11         12
     1  C    0.000048   0.398469  -0.028756   0.001065   0.000375   0.002281
     2  C    0.001365  -0.033495   0.400587  -0.047470   0.001824  -0.000074
     3  C   -0.040035   0.002859  -0.039962   0.416499  -0.064391   0.002121
     4  C    0.002121  -0.000126   0.002097  -0.067504   0.421471  -0.040056
     5  C   -0.000063   0.002404  -0.000068   0.001760  -0.049466   0.400859
     6  C    0.000008  -0.031948   0.002283   0.000404   0.001086  -0.029072
     7  H    0.424343  -0.000001   0.001864   0.400101  -0.000087   0.000000
     8  H   -0.000001   0.425341  -0.001642  -0.000047   0.000000  -0.000036
     9  H    0.001864  -0.001642   0.423565   0.001253  -0.000063   0.000002
    10  C    0.400101  -0.000047   0.001253   5.093112  -0.008970  -0.000064
    11  C   -0.000087   0.000000  -0.000063  -0.008970   5.093090   0.001250
    12  H    0.000000  -0.000036   0.000002  -0.000064   0.001250   0.423905
    13  H   -0.000000  -0.001230  -0.000036   0.000000  -0.000047  -0.001653
    14  C    0.002463   0.000000   0.000007  -0.108071   0.537935   0.000062
    15  C   -0.029689   0.000000   0.000047   0.535250  -0.093420   0.000007
    16  H    0.000003  -0.000000   0.000000  -0.000035   0.401490   0.002014
    17  H   -0.001714  -0.000000  -0.000001  -0.031120   0.002219  -0.000000
    18  C   -0.000048   0.000000  -0.000000   0.001430  -0.051279  -0.000002
    19  H    0.000001  -0.000000   0.000000   0.000082   0.000708   0.000000
    20  H    0.000001  -0.000000   0.000000   0.000082   0.000706   0.000000
    21  H    0.000000   0.000000   0.000000  -0.000053   0.000059   0.000001
              13         14         15         16         17         18
     1  C   -0.031978  -0.000008  -0.000060   0.000009   0.000001  -0.000000
     2  C    0.002429   0.000281   0.001227  -0.000066  -0.000050   0.000001
     3  C   -0.000129  -0.003359  -0.112825   0.002116   0.002859   0.000147
     4  C    0.002835  -0.114240  -0.003327  -0.037183  -0.000083   0.002437
     5  C   -0.033569   0.001401   0.000344   0.001152   0.000001  -0.000057
     6  C    0.398272  -0.000068  -0.000012   0.000045  -0.000000   0.000000
     7  H   -0.000000   0.002463  -0.029689   0.000003  -0.001714  -0.000048
     8  H   -0.001230   0.000000   0.000000  -0.000000  -0.000000   0.000000
     9  H   -0.000036   0.000007   0.000047   0.000000  -0.000001  -0.000000
    10  C    0.000000  -0.108071   0.535250  -0.000035  -0.031120   0.001430
    11  C   -0.000047   0.537935  -0.093420   0.401490   0.002219  -0.051279
    12  H   -0.001653   0.000062   0.000007   0.002014  -0.000000  -0.000002
    13  H    0.425292   0.000000  -0.000000  -0.000001   0.000000  -0.000000
    14  C    0.000000   5.299221   0.425158  -0.031318  -0.035899   0.252217
    15  C   -0.000000   0.425158   5.160289   0.002296   0.400444  -0.060564
    16  H   -0.000001  -0.031318   0.002296   0.426608  -0.000044  -0.001514
    17  H    0.000000  -0.035899   0.400444  -0.000044   0.426897  -0.000713
    18  C   -0.000000   0.252217  -0.060564  -0.001514  -0.000713   5.292545
    19  H    0.000000  -0.052602  -0.000862   0.000024   0.000355   0.381013
    20  H    0.000000  -0.052602  -0.000861   0.000024   0.000354   0.381008
    21  H   -0.000000  -0.051115   0.002724   0.001464   0.000005   0.388544
              19         20         21
     1  C   -0.000000  -0.000000   0.000000
     2  C   -0.000000  -0.000000  -0.000000
     3  C    0.000004   0.000004  -0.000002
     4  C   -0.000063  -0.000063   0.000243
     5  C    0.000001   0.000001  -0.000002
     6  C   -0.000000  -0.000000  -0.000000
     7  H    0.000001   0.000001   0.000000
     8  H   -0.000000  -0.000000   0.000000
     9  H    0.000000   0.000000   0.000000
    10  C    0.000082   0.000082  -0.000053
    11  C    0.000708   0.000706   0.000059
    12  H    0.000000   0.000000   0.000001
    13  H    0.000000   0.000000  -0.000000
    14  C   -0.052602  -0.052602  -0.051115
    15  C   -0.000862  -0.000861   0.002724
    16  H    0.000024   0.000024   0.001464
    17  H    0.000355   0.000354   0.000005
    18  C    0.381013   0.381008   0.388544
    19  H    0.502023  -0.027506  -0.023559
    20  H   -0.027506   0.502021  -0.023559
    21  H   -0.023559  -0.023559   0.491913
 Mulliken charges:
               1
     1  C   -0.241093
     2  C   -0.193886
     3  C   -0.102215
     4  C   -0.084512
     5  C   -0.197436
     6  C   -0.237239
     7  H    0.239319
     8  H    0.239450
     9  H    0.238825
    10  C   -0.187706
    11  C   -0.194494
    12  H    0.238456
    13  H    0.239813
    14  C   -0.069463
    15  C   -0.226166
    16  H    0.232916
    17  H    0.236490
    18  C   -0.585165
    19  H    0.220382
    20  H    0.220390
    21  H    0.213336
 Sum of Mulliken charges =  -0.00000
 Mulliken charges with hydrogens summed into heavy atoms:
               1
     1  C   -0.001643
     2  C    0.044938
     3  C   -0.102215
     4  C   -0.084512
     5  C    0.041020
     6  C    0.002574
    10  C    0.051614
    11  C    0.038421
    14  C   -0.069463
    15  C    0.010324
    18  C    0.068942
 Electronic spatial extent (au):  <R**2>=           1757.2597
 Charge=              0.0000 electrons
 Dipole moment (field-independent basis, Debye):
    X=              0.4082    Y=              0.0132    Z=              0.0001  Tot=              0.4084
 Quadrupole moment (field-independent basis, Debye-Ang):
   XX=            -56.3462   YY=            -57.6224   ZZ=            -72.8058
   XY=             -0.0681   XZ=              0.0001   YZ=              0.0000
 Traceless Quadrupole moment (field-independent basis, Debye-Ang):
   XX=              5.9119   YY=              4.6357   ZZ=            -10.5477
   XY=             -0.0681   XZ=              0.0001   YZ=              0.0000
 Octapole moment (field-independent basis, Debye-Ang**2):
  XXX=             -3.3434  YYY=              0.8634  ZZZ=              0.0006  XYY=             -2.3435
  XXY=              0.2692  XXZ=              0.0004  XZZ=              5.6320  YZZ=             -0.4080
  YYZ=             -0.0002  XYZ=             -0.0001
 Hexadecapole moment (field-independent basis, Debye-Ang**3):
 XXXX=          -1637.3910 YYYY=           -507.0486 ZZZZ=            -83.8416 XXXY=              9.8185
 XXXZ=             -0.0001 YYYX=             -0.7405 YYYZ=              0.0012 ZZZX=              0.0022
 ZZZY=             -0.0004 XXYY=           -363.0921 XXZZ=           -336.5051 YYZZ=           -122.5203
 XXYZ=             -0.0011 YYXZ=             -0.0016 ZZXY=             -1.6233
 N-N= 5.445074448673D+02 E-N=-2.065676008688D+03  KE= 4.193354460299D+02
 1\1\GINC-IISERK51\FOpt\RHF\3-21G\C11H10\GAUSSIAN\09-Jun-2025\0\\# opt 
 hf/3-21g geom=connectivity\\Optimisation 3-21G\\0,1\C,-3.5789285984,-0
 .1856491894,0.0013899705\C,-2.2211943564,-0.1833392642,-0.0172525433\C
 ,-1.4998679039,1.0362280909,-0.0125349933\C,-2.2080120466,2.2516095596
 ,0.0117966183\C,-3.625311274,2.2179664123,0.0308871771\C,-4.2913901863
 ,1.0346807953,0.0258457333\H,0.4616664887,0.1522619303,-0.0501381452\H
 ,-4.1192443614,-1.1113242126,-0.0022903146\H,-1.6741880674,-1.10625312
 44,-0.0358613879\C,-0.0810639518,1.0777761368,-0.0315570205\C,-1.48439
 7898,3.4735291577,0.0165160233\H,-4.1631185915,3.1461550862,0.04942051
 76\H,-5.3631135106,1.017934052,0.0403783171\C,-0.1270646161,3.49373915
 52,-0.0019113853\C,0.5787080505,2.2606427217,-0.0264203109\H,-2.037594
 4091,4.3933946645,0.0351666911\H,1.6515745247,2.2791083396,-0.04096647
 74\C,0.6574406751,4.7901069093,0.0028402527\H,1.304564227,4.8413295947
 ,0.8726169151\H,1.2800267952,4.8626215567,-0.8831818942\H,-0.0044159,5
 .6467416179,0.0224792665\\Version=EM64L-G16RevB.01\State=1-A\HF=-420.0
 372665\RMSD=8.282e-09\RMSF=5.014e-06\Dipole=0.1249629,0.100986,-0.0005
 308\Quadrupole=3.9381012,3.9000625,-7.8381637,0.4785631,-0.1563389,0.1
 343387\PG=C01 [X(C11H10)]\\@


 What some people mistake for the high cost
 of living is really the cost of living high.
                              -- Doug Larson
 Job cpu time:       0 days  0 hours  0 minutes 27.9 seconds.
 Elapsed time:       0 days  0 hours  0 minutes 27.6 seconds.
 File lengths (MBytes):  RWF=     10 Int=      0 D2E=      0 Chk=      3 Scr=      1
 Normal termination of Gaussian 16 at Mon Jun  9 19:42:41 2025.
