 Entering Gaussian System, Link 0=g16
 Input=/home/gaussian/Documents/Summer_Internship/Acid_Base_adduct/Acid/BCl3/ideal_pyramid_MX3/BCl3_pyramid_sp.com
 Output=/home/gaussian/Documents/Summer_Internship/Acid_Base_adduct/Acid/BCl3/ideal_pyramid_MX3/BCl3_pyramid_sp.log
 Initial command:
 /usr/local/g16/l1.exe "/home/gaussian/tmp/Gau-78666.inp" -scrdir="/home/gaussian/tmp/"
 Entering Link 1 = /usr/local/g16/l1.exe PID=     78669.
  
 Copyright (c) 1988-2017, Gaussian, Inc.  All Rights Reserved.
  
 This is part of the Gaussian(R) 16 program.  It is based on
 the Gaussian(R) 09 system (copyright 2009, Gaussian, Inc.),
 the Gaussian(R) 03 system (copyright 2003, Gaussian, Inc.),
 the Gaussian(R) 98 system (copyright 1998, Gaussian, Inc.),
 the Gaussian(R) 94 system (copyright 1995, Gaussian, Inc.),
 the Gaussian 92(TM) system (copyright 1992, Gaussian, Inc.),
 the Gaussian 90(TM) system (copyright 1990, Gaussian, Inc.),
 the Gaussian 88(TM) system (copyright 1988, Gaussian, Inc.),
 the Gaussian 86(TM) system (copyright 1986, Carnegie Mellon
 University), and the Gaussian 82(TM) system (copyright 1983,
 Carnegie Mellon University). Gaussian is a federally registered
 trademark of Gaussian, Inc.
  
 This software contains proprietary and confidential information,
 including trade secrets, belonging to Gaussian, Inc.
  
 This software is provided under written license and may be
 used, copied, transmitted, or stored only in accord with that
 written license.
  
 The following legend is applicable only to US Government
 contracts under FAR:
  
                    RESTRICTED RIGHTS LEGEND
  
 Use, reproduction and disclosure by the US Government is
 subject to restrictions as set forth in subparagraphs (a)
 and (c) of the Commercial Computer Software - Restricted
 Rights clause in FAR 52.227-19.
  
 Gaussian, Inc.
 340 Quinnipiac St., Bldg. 40, Wallingford CT 06492
  
  
 ---------------------------------------------------------------
 Warning -- This program may not be used in any manner that
 competes with the business of Gaussian, Inc. or will provide
 assistance to any competitor of Gaussian, Inc.  The licensee
 of this program is prohibited from giving any competitor of
 Gaussian, Inc. access to this program.  By using this program,
 the user acknowledges that Gaussian, Inc. is engaged in the
 business of creating and licensing software in the field of
 computational chemistry and represents and warrants to the
 licensee that it is not a competitor of Gaussian, Inc. and that
 it will not use this program in any manner prohibited above.
 ---------------------------------------------------------------
  

 Cite this work as:
 Gaussian 16, Revision B.01,
 M. J. Frisch, G. W. Trucks, H. B. Schlegel, G. E. Scuseria, 
 M. A. Robb, J. R. Cheeseman, G. Scalmani, V. Barone, 
 G. A. Petersson, H. Nakatsuji, X. Li, M. Caricato, A. V. Marenich, 
 J. Bloino, B. G. Janesko, R. Gomperts, B. Mennucci, H. P. Hratchian, 
 J. V. Ortiz, A. F. Izmaylov, J. L. Sonnenberg, D. Williams-Young, 
 F. Ding, F. Lipparini, F. Egidi, J. Goings, B. Peng, A. Petrone, 
 T. Henderson, D. Ranasinghe, V. G. Zakrzewski, J. Gao, N. Rega, 
 G. Zheng, W. Liang, M. Hada, M. Ehara, K. Toyota, R. Fukuda, 
 J. Hasegawa, M. Ishida, T. Nakajima, Y. Honda, O. Kitao, H. Nakai, 
 T. Vreven, K. Throssell, J. A. Montgomery, Jr., J. E. Peralta, 
 F. Ogliaro, M. J. Bearpark, J. J. Heyd, E. N. Brothers, K. N. Kudin, 
 V. N. Staroverov, T. A. Keith, R. Kobayashi, J. Normand, 
 K. Raghavachari, A. P. Rendell, J. C. Burant, S. S. Iyengar, 
 J. Tomasi, M. Cossi, J. M. Millam, M. Klene, C. Adamo, R. Cammi, 
 J. W. Ochterski, R. L. Martin, K. Morokuma, O. Farkas, 
 J. B. Foresman, and D. J. Fox, Gaussian, Inc., Wallingford CT, 2016.
 
 ******************************************
 Gaussian 16:  EM64L-G16RevB.01 20-Dec-2017
                16-Jun-2025 
 ******************************************
 %chk=BCl3_pyramid_sp.chk
 -------------------------------------
 # hf/3-21g pop=full geom=connectivity
 -------------------------------------
 1/38=1,57=2,172=1/1;
 2/12=2,17=6,18=5,40=1/2;
 3/5=5,11=9,25=1,30=1/1,2,3;
 4//1;
 5/5=2,38=5/2;
 6/7=3,28=1/1;
 99/5=1,9=1/99;
 ----------------
 BCl3 pyramid opt
 ----------------
 Symbolic Z-matrix:
 Charge =  0 Multiplicity = 1
 B                     0.        0.        0. 
 Cl                   -0.3847    1.56782  -1.02249 
 Cl                   -0.44788  -1.55203  -1.02086 
 Cl                   -1.02827   0.02166   1.61051 
 
                          Input orientation:                          
 ---------------------------------------------------------------------
 Center     Atomic      Atomic             Coordinates (Angstroms)
 Number     Number       Type             X           Y           Z
 ---------------------------------------------------------------------
      1          5           0        0.000000    0.000000    0.000000
      2         17           0       -0.384703    1.567820   -1.022489
      3         17           0       -0.447880   -1.552027   -1.020860
      4         17           0       -1.028273    0.021663    1.610505
 ---------------------------------------------------------------------
                    Distance matrix (angstroms):
                    1          2          3          4
     1  B    0.000000
     2  Cl   1.910900   0.000000
     3  Cl   1.910900   3.120487   0.000000
     4  Cl   1.910901   3.120487   3.120487   0.000000
 Stoichiometry    BCl3
 Framework group  C3V[C3(B),3SGV(Cl)]
 Deg. of freedom     2
 Full point group                 C3V     NOp   6
 Largest Abelian subgroup         CS      NOp   2
 Largest concise Abelian subgroup CS      NOp   2
                         Standard orientation:                         
 ---------------------------------------------------------------------
 Center     Atomic      Atomic             Coordinates (Angstroms)
 Number     Number       Type             X           Y           Z
 ---------------------------------------------------------------------
      1          5           0        0.000000   -0.000000    0.580095
      2         17           0       -0.000000    1.801614   -0.056872
      3         17           0        1.560244   -0.900807   -0.056872
      4         17           0       -1.560244   -0.900807   -0.056872
 ---------------------------------------------------------------------
 Rotational constants (GHZ):           2.8995429           2.8995429           1.4841951
 Standard basis: 3-21G (6D, 7F)
 There are    30 symmetry adapted cartesian basis functions of A'  symmetry.
 There are    18 symmetry adapted cartesian basis functions of A"  symmetry.
 There are    30 symmetry adapted basis functions of A'  symmetry.
 There are    18 symmetry adapted basis functions of A"  symmetry.
    48 basis functions,    96 primitive gaussians,    48 cartesian basis functions
    28 alpha electrons       28 beta electrons
       nuclear repulsion energy       217.6432664787 Hartrees.
 NAtoms=    4 NActive=    4 NUniq=    2 SFac= 4.00D+00 NAtFMM=   60 NAOKFM=F Big=F
 Integral buffers will be    131072 words long.
 Raffenetti 1 integral format.
 Two-electron integral symmetry is turned on.
 One-electron integrals computed using PRISM.
 NBasis=    48 RedAO= T EigKep=  1.47D-02  NBF=    30    18
 NBsUse=    48 1.00D-06 EigRej= -1.00D+00 NBFU=    30    18
 ExpMin= 1.24D-01 ExpMax= 1.38D+03 ExpMxC= 1.38D+03 IAcc=3 IRadAn=         5 AccDes= 0.00D+00
 Harris functional with IExCor=  205 and IRadAn=       5 diagonalized for initial guess.
 HarFok:  IExCor=  205 AccDes= 0.00D+00 IRadAn=         5 IDoV= 1 UseB2=F ITyADJ=14
 ICtDFT=  3500011 ScaDFX=  1.000000  1.000000  1.000000  1.000000
 FoFCou: FMM=F IPFlag=           0 FMFlag=      100000 FMFlg1=           0
         NFxFlg=           0 DoJE=T BraDBF=F KetDBF=T FulRan=T
         wScrn=  0.000000 ICntrl=       500 IOpCl=  0 I1Cent=   200000004 NGrid=           0
         NMat0=    1 NMatS0=      1 NMatT0=    0 NMatD0=    1 NMtDS0=    0 NMtDT0=    0
 Petite list used in FoFCou.
 Initial guess orbital symmetries:
       Occupied  (E) (E) (A1) (E) (E) (A1) (E) (E) (A1) (A2) (E)
                 (E) (A1) (E) (E) (A1) (A1) (E) (E) (A1) (E) (E)
                 (A1) (E) (E) (E) (E) (A2)
       Virtual   (A1) (A1) (E) (E) (E) (E) (A1) (A1) (E) (E) (E)
                 (E) (A1) (A1) (E) (E) (A2) (E) (E) (A1)
 The electronic state of the initial guess is 1-A1.
 Keep R1 ints in memory in symmetry-blocked form, NReq=1504345.
 Requested convergence on RMS density matrix=1.00D-08 within 128 cycles.
 Requested convergence on MAX density matrix=1.00D-06.
 Requested convergence on             energy=1.00D-06.
 No special actions if energy rises.
 SCF Done:  E(RHF) =  -1396.46832106     A.U. after   11 cycles
            NFock= 11  Conv=0.15D-08     -V/T= 2.0010

 **********************************************************************

            Population analysis using the SCF Density.

 **********************************************************************

 Orbital symmetries:
       Occupied  (E) (E) (A1) (E) (E) (A1) (E) (E) (A1) (E) (E)
                 (A1) (A2) (E) (E) (A1) (A1) (E) (E) (A1) (E) (E)
                 (A1) (E) (E) (E) (E) (A2)
       Virtual   (A1) (A1) (E) (E) (E) (E) (A1) (A1) (E) (E) (E)
                 (E) (A1) (A1) (E) (E) (A2) (E) (E) (A1)
 The electronic state is 1-A1.
 Alpha  occ. eigenvalues -- -104.14835-104.14835-104.14806 -10.54171 -10.54171
 Alpha  occ. eigenvalues --  -10.54079  -8.00447  -8.00447  -8.00427  -8.00088
 Alpha  occ. eigenvalues --   -8.00088  -8.00074  -8.00065  -8.00039  -8.00039
 Alpha  occ. eigenvalues --   -7.82563  -1.17414  -1.11831  -1.11831  -0.70512
 Alpha  occ. eigenvalues --   -0.58790  -0.58790  -0.54998  -0.49962  -0.49962
 Alpha  occ. eigenvalues --   -0.47966  -0.47966  -0.47233
 Alpha virt. eigenvalues --   -0.05092   0.16384   0.16700   0.16700   0.56087
 Alpha virt. eigenvalues --    0.56087   0.56624   0.64049   0.72820   0.72820
 Alpha virt. eigenvalues --    0.74956   0.74956   0.75256   0.81062   0.84533
 Alpha virt. eigenvalues --    0.84533   0.89000   1.02246   1.02246   1.20733
     Molecular Orbital Coefficients:
                           1         2         3         4         5
                        (E)--O    (E)--O    (A1)--O   (E)--O    (E)--O
     Eigenvalues --  -104.14835-104.14835-104.14806 -10.54171 -10.54171
   1 1   B  1S         -0.00000   0.00000   0.00017   0.00000   0.00000
   2        2S         -0.00000   0.00000   0.00166   0.00000   0.00000
   3        2PX         0.00000  -0.00001   0.00000  -0.00008   0.00000
   4        2PY        -0.00001   0.00000   0.00000   0.00000  -0.00008
   5        2PZ         0.00000   0.00000  -0.00013   0.00000  -0.00000
   6        3S          0.00000   0.00000  -0.00867   0.00000  -0.00000
   7        3PX         0.00000  -0.00389   0.00000   0.02266   0.00000
   8        3PY        -0.00389   0.00000  -0.00000   0.00000   0.02266
   9        3PZ        -0.00000   0.00000   0.00249   0.00000   0.00000
  10 2   Cl 1S          0.80497   0.00000   0.56921   0.00000  -0.24978
  11        2S          0.04338   0.00000   0.03058   0.00000   0.80254
  12        2PX         0.00000  -0.00003   0.00000   0.00012   0.00000
  13        2PY        -0.00021   0.00000  -0.00007   0.00000  -0.00651
  14        2PZ         0.00007   0.00000   0.00004   0.00000   0.00332
  15        3S         -0.01593   0.00000  -0.01076   0.00000   0.11799
  16        3PX         0.00000   0.00016   0.00000  -0.00082   0.00000
  17        3PY         0.00084   0.00000   0.00018   0.00000  -0.00596
  18        3PZ        -0.00026   0.00000  -0.00010   0.00000   0.00210
  19        4S          0.01093   0.00000   0.00775   0.00000  -0.06395
  20        4PX         0.00000   0.00016   0.00000  -0.00112   0.00000
  21        4PY        -0.00282   0.00000  -0.00202   0.00000   0.01640
  22        4PZ         0.00109   0.00000   0.00046   0.00000  -0.00646
  23 3   Cl 1S         -0.40248   0.69712   0.56921  -0.21632   0.12489
  24        2S         -0.02169   0.03757   0.03058   0.69502  -0.40127
  25        2PX         0.00007  -0.00016  -0.00006  -0.00485   0.00287
  26        2PY        -0.00008   0.00007   0.00003   0.00287  -0.00153
  27        2PZ        -0.00004   0.00006   0.00004   0.00288  -0.00166
  28        3S          0.00797  -0.01380  -0.01076   0.10218  -0.05899
  29        3PX        -0.00029   0.00067   0.00016  -0.00467   0.00222
  30        3PY         0.00033  -0.00029  -0.00009   0.00222  -0.00211
  31        3PZ         0.00013  -0.00023  -0.00010   0.00182  -0.00105
  32        4S         -0.00547   0.00947   0.00775  -0.05538   0.03197
  33        4PX         0.00129  -0.00207  -0.00175   0.01202  -0.00758
  34        4PY        -0.00058   0.00129   0.00101  -0.00758   0.00326
  35        4PZ        -0.00054   0.00094   0.00046  -0.00560   0.00323
  36 4   Cl 1S         -0.40248  -0.69712   0.56921   0.21632   0.12489
  37        2S         -0.02169  -0.03757   0.03058  -0.69502  -0.40127
  38        2PX        -0.00007  -0.00016   0.00006  -0.00485  -0.00287
  39        2PY        -0.00008  -0.00007   0.00003  -0.00287  -0.00153
  40        2PZ        -0.00004  -0.00006   0.00004  -0.00288  -0.00166
  41        3S          0.00797   0.01380  -0.01076  -0.10218  -0.05899
  42        3PX         0.00029   0.00067  -0.00016  -0.00467  -0.00222
  43        3PY         0.00033   0.00029  -0.00009  -0.00222  -0.00211
  44        3PZ         0.00013   0.00023  -0.00010  -0.00182  -0.00105
  45        4S         -0.00547  -0.00947   0.00775   0.05538   0.03197
  46        4PX        -0.00129  -0.00207   0.00175   0.01202   0.00758
  47        4PY        -0.00058  -0.00129   0.00101   0.00758   0.00326
  48        4PZ        -0.00054  -0.00094   0.00046   0.00560   0.00323
                           6         7         8         9        10
                        (A1)--O   (E)--O    (E)--O    (A1)--O   (E)--O
     Eigenvalues --   -10.54079  -8.00447  -8.00447  -8.00427  -8.00088
   1 1   B  1S         -0.00136   0.00000  -0.00000   0.00182  -0.00000
   2        2S         -0.00979   0.00000   0.00000  -0.00014  -0.00000
   3        2PX         0.00000   0.00093   0.00000   0.00000   0.00000
   4        2PY        -0.00000   0.00000   0.00093   0.00000  -0.00091
   5        2PZ         0.00081   0.00000   0.00000  -0.00039   0.00000
   6        3S          0.05162   0.00000   0.00000  -0.01457   0.00000
   7        3PX         0.00000  -0.01050   0.00000   0.00000   0.00000
   8        3PY         0.00000   0.00000  -0.01050  -0.00000   0.00577
   9        3PZ        -0.01491   0.00000  -0.00000   0.00115  -0.00000
  10 2   Cl 1S         -0.17669   0.00000  -0.00281  -0.00190   0.00009
  11        2S          0.56799   0.00000   0.00976   0.00647  -0.00025
  12        2PX         0.00000   0.00945   0.00000   0.00000   0.00000
  13        2PY        -0.00491   0.00000   0.72796   0.51105   0.31243
  14        2PZ         0.00241   0.00000  -0.31827  -0.23392   0.71875
  15        3S          0.08096   0.00000  -0.00677  -0.00148  -0.00061
  16        3PX         0.00000   0.00124   0.00000   0.00000   0.00000
  17        3PY        -0.00206   0.00000   0.06266   0.04266   0.02579
  18        3PZ         0.00100   0.00000  -0.02717  -0.01985   0.05865
  19        4S         -0.04614   0.00000   0.01376   0.00402  -0.00141
  20        4PX         0.00000  -0.00053   0.00000   0.00000   0.00000
  21        4PY         0.01234   0.00000  -0.02639  -0.01480  -0.00771
  22        4PZ        -0.00279   0.00000   0.01075   0.00734  -0.01897
  23 3   Cl 1S         -0.17669  -0.00243   0.00140  -0.00190  -0.00005
  24        2S          0.56799   0.00845  -0.00488   0.00647   0.00012
  25        2PX        -0.00425   0.54833  -0.31112   0.44258  -0.07642
  26        2PY         0.00246  -0.31112   0.18907  -0.25552   0.18006
  27        2PZ         0.00241  -0.27563   0.15913  -0.23392  -0.35938
  28        3S          0.08096  -0.00586   0.00339  -0.00148   0.00031
  29        3PX        -0.00178   0.04730  -0.02659   0.03695  -0.00615
  30        3PY         0.00103  -0.02659   0.01659  -0.02133   0.01514
  31        3PZ         0.00100  -0.02353   0.01359  -0.01985  -0.02933
  32        4S         -0.04614   0.01192  -0.00688   0.00402   0.00070
  33        4PX         0.01068  -0.01992   0.01120  -0.01282   0.00092
  34        4PY        -0.00617   0.01120  -0.00699   0.00740  -0.00612
  35        4PZ        -0.00279   0.00931  -0.00538   0.00734   0.00949
  36 4   Cl 1S         -0.17669   0.00243   0.00140  -0.00190  -0.00005
  37        2S          0.56799  -0.00845  -0.00488   0.00647   0.00012
  38        2PX         0.00425   0.54833   0.31112  -0.44258   0.07642
  39        2PY         0.00246   0.31112   0.18907  -0.25552   0.18006
  40        2PZ         0.00241   0.27563   0.15913  -0.23392  -0.35938
  41        3S          0.08096   0.00586   0.00339  -0.00148   0.00031
  42        3PX         0.00178   0.04730   0.02659  -0.03695   0.00615
  43        3PY         0.00103   0.02659   0.01659  -0.02133   0.01514
  44        3PZ         0.00100   0.02353   0.01359  -0.01985  -0.02933
  45        4S         -0.04614  -0.01192  -0.00688   0.00402   0.00070
  46        4PX        -0.01068  -0.01992  -0.01120   0.01282  -0.00092
  47        4PY        -0.00617  -0.01120  -0.00699   0.00740  -0.00612
  48        4PZ        -0.00279  -0.00931  -0.00538   0.00734   0.00949
                          11        12        13        14        15
                        (E)--O    (A1)--O   (A2)--O   (E)--O    (E)--O
     Eigenvalues --    -8.00088  -8.00074  -8.00065  -8.00039  -8.00039
   1 1   B  1S          0.00000   0.00094   0.00000   0.00000   0.00000
   2        2S          0.00000   0.00171   0.00000   0.00000   0.00000
   3        2PX        -0.00091   0.00000   0.00000   0.00000  -0.00094
   4        2PY         0.00000  -0.00000   0.00000  -0.00094   0.00000
   5        2PZ         0.00000  -0.00112   0.00000  -0.00000   0.00000
   6        3S          0.00000  -0.00649   0.00000  -0.00000   0.00000
   7        3PX         0.00577   0.00000  -0.00000   0.00000   0.00597
   8        3PY         0.00000   0.00000   0.00000   0.00597   0.00000
   9        3PZ         0.00000   0.00843   0.00000   0.00000   0.00000
  10 2   Cl 1S          0.00000   0.00006   0.00000  -0.00002   0.00000
  11        2S          0.00000  -0.00021   0.00000   0.00014   0.00000
  12        2PX         0.13594   0.00000   0.56241   0.00000   0.78391
  13        2PY         0.00000   0.23425   0.00000  -0.06320   0.00000
  14        2PZ         0.00000   0.51149   0.00000  -0.12095   0.00000
  15        3S          0.00000  -0.00012   0.00000  -0.00091   0.00000
  16        3PX         0.01159   0.00000   0.04639   0.00000   0.06294
  17        3PY         0.00000   0.01867   0.00000  -0.00450   0.00000
  18        3PZ         0.00000   0.04135   0.00000  -0.00949   0.00000
  19        4S          0.00000   0.00235   0.00000  -0.00093   0.00000
  20        4PX        -0.00558   0.00000  -0.01588   0.00000  -0.01881
  21        4PY         0.00000  -0.00699   0.00000   0.00116   0.00000
  22        4PZ         0.00000  -0.01257   0.00000   0.00148   0.00000
  23 3   Cl 1S          0.00008   0.00006   0.00000   0.00001  -0.00002
  24        2S         -0.00022  -0.00021  -0.00000  -0.00007   0.00012
  25        2PX         0.26831   0.20287  -0.28120   0.36681   0.14858
  26        2PY        -0.07642  -0.11712  -0.48706   0.57213   0.36681
  27        2PZ         0.62246   0.51149   0.00000   0.06047  -0.10474
  28        3S         -0.00053  -0.00012   0.00000   0.00046  -0.00079
  29        3PX         0.02224   0.01617  -0.02320   0.02920   0.01236
  30        3PY        -0.00615  -0.00933  -0.04018   0.04608   0.02920
  31        3PZ         0.05079   0.04135   0.00000   0.00474  -0.00822
  32        4S         -0.00122   0.00235   0.00000   0.00047  -0.00081
  33        4PX        -0.00718  -0.00605   0.00794  -0.00865  -0.00383
  34        4PY         0.00092   0.00350   0.01375  -0.01381  -0.00865
  35        4PZ        -0.01643  -0.01257   0.00000  -0.00074   0.00128
  36 4   Cl 1S         -0.00008   0.00006  -0.00000   0.00001   0.00002
  37        2S          0.00022  -0.00021   0.00000  -0.00007  -0.00012
  38        2PX         0.26831  -0.20287  -0.28120  -0.36681   0.14858
  39        2PY         0.07642  -0.11712   0.48706   0.57213  -0.36681
  40        2PZ        -0.62246   0.51149  -0.00000   0.06047   0.10474
  41        3S          0.00053  -0.00012  -0.00000   0.00046   0.00079
  42        3PX         0.02224  -0.01617  -0.02320  -0.02920   0.01236
  43        3PY         0.00615  -0.00933   0.04018   0.04608  -0.02920
  44        3PZ        -0.05079   0.04135  -0.00000   0.00474   0.00822
  45        4S          0.00122   0.00235  -0.00000   0.00047   0.00081
  46        4PX        -0.00718   0.00605   0.00794   0.00865  -0.00383
  47        4PY        -0.00092   0.00350  -0.01375  -0.01381   0.00865
  48        4PZ         0.01643  -0.01257  -0.00000  -0.00074  -0.00128
                          16        17        18        19        20
                        (A1)--O   (A1)--O   (E)--O    (E)--O    (A1)--O
     Eigenvalues --    -7.82563  -1.17414  -1.11831  -1.11831  -0.70512
   1 1   B  1S          0.98958  -0.08749   0.00000  -0.00000  -0.15991
   2        2S          0.09414   0.11392   0.00000   0.00000   0.19620
   3        2PX         0.00000   0.00000   0.10829   0.00000   0.00000
   4        2PY        -0.00000  -0.00000   0.00000   0.10829   0.00000
   5        2PZ        -0.00143  -0.04365   0.00000  -0.00000  -0.06236
   6        3S         -0.07256   0.13845   0.00000   0.00000   0.53017
   7        3PX         0.00000   0.00000  -0.00816   0.00000   0.00000
   8        3PY         0.00000   0.00000   0.00000  -0.00816  -0.00000
   9        3PZ         0.01690  -0.02239   0.00000  -0.00000  -0.08953
  10 2   Cl 1S         -0.00012   0.04196   0.00000   0.06481  -0.02000
  11        2S          0.00054  -0.24609   0.00000  -0.38139   0.12066
  12        2PX         0.00000   0.00000  -0.00551   0.00000   0.00000
  13        2PY        -0.00177   0.02787   0.00000   0.02253   0.10944
  14        2PZ         0.00020  -0.00739   0.00000  -0.01009  -0.02576
  15        3S         -0.00524   0.31880   0.00000   0.47751  -0.13770
  16        3PX         0.00000   0.00000   0.01223   0.00000   0.00000
  17        3PY         0.00049  -0.05760   0.00000  -0.04436  -0.23573
  18        3PZ         0.00038   0.01378   0.00000   0.01971   0.05266
  19        4S          0.02093   0.22293   0.00000   0.42590  -0.26859
  20        4PX         0.00000   0.00000   0.00337   0.00000   0.00000
  21        4PY        -0.01049  -0.01559   0.00000  -0.04701  -0.08551
  22        4PZ         0.00018   0.01111   0.00000   0.02002   0.03057
  23 3   Cl 1S         -0.00012   0.04196   0.05613  -0.03240  -0.02000
  24        2S          0.00054  -0.24609  -0.33029   0.19069   0.12066
  25        2PX        -0.00154   0.02414   0.01552  -0.01214   0.09478
  26        2PY         0.00089  -0.01394  -0.01214   0.00150  -0.05472
  27        2PZ         0.00020  -0.00739  -0.00874   0.00504  -0.02576
  28        3S         -0.00524   0.31880   0.41353  -0.23875  -0.13770
  29        3PX         0.00043  -0.04988  -0.03021   0.02451  -0.20415
  30        3PY        -0.00025   0.02880   0.02451  -0.00192   0.11787
  31        3PZ         0.00038   0.01378   0.01707  -0.00985   0.05266
  32        4S          0.02093   0.22293   0.36884  -0.21295  -0.26859
  33        4PX        -0.00909  -0.01350  -0.03441   0.02182  -0.07405
  34        4PY         0.00525   0.00779   0.02182  -0.00922   0.04275
  35        4PZ         0.00018   0.01111   0.01734  -0.01001   0.03057
  36 4   Cl 1S         -0.00012   0.04196  -0.05613  -0.03240  -0.02000
  37        2S          0.00054  -0.24609   0.33029   0.19069   0.12066
  38        2PX         0.00154  -0.02414   0.01552   0.01214  -0.09478
  39        2PY         0.00089  -0.01394   0.01214   0.00150  -0.05472
  40        2PZ         0.00020  -0.00739   0.00874   0.00504  -0.02576
  41        3S         -0.00524   0.31880  -0.41353  -0.23875  -0.13770
  42        3PX        -0.00043   0.04988  -0.03021  -0.02451   0.20415
  43        3PY        -0.00025   0.02880  -0.02451  -0.00192   0.11787
  44        3PZ         0.00038   0.01378  -0.01707  -0.00985   0.05266
  45        4S          0.02093   0.22293  -0.36884  -0.21295  -0.26859
  46        4PX         0.00909   0.01350  -0.03441  -0.02182   0.07405
  47        4PY         0.00525   0.00779  -0.02182  -0.00922   0.04275
  48        4PZ         0.00018   0.01111  -0.01734  -0.01001   0.03057
                          21        22        23        24        25
                        (E)--O    (E)--O    (A1)--O   (E)--O    (E)--O
     Eigenvalues --    -0.58790  -0.58790  -0.54998  -0.49962  -0.49962
   1 1   B  1S         -0.00000   0.00000  -0.03278  -0.00000   0.00000
   2        2S         -0.00000   0.00000   0.06159  -0.00000   0.00000
   3        2PX         0.00000   0.27637   0.00000   0.00000  -0.11628
   4        2PY        -0.27637   0.00000   0.00000   0.11628   0.00000
   5        2PZ         0.00000   0.00000   0.14377   0.00000   0.00000
   6        3S          0.00000   0.00000   0.03689   0.00000   0.00000
   7        3PX         0.00000   0.17776   0.00000   0.00000  -0.03481
   8        3PY        -0.17776   0.00000   0.00000   0.03481   0.00000
   9        3PZ        -0.00000   0.00000   0.16987  -0.00000   0.00000
  10 2   Cl 1S          0.01349   0.00000  -0.00066  -0.00329   0.00000
  11        2S         -0.08189   0.00000   0.00375   0.02001   0.00000
  12        2PX         0.00000  -0.12022   0.00000   0.00000  -0.15065
  13        2PY        -0.14593   0.00000  -0.04886   0.03717   0.00000
  14        2PZ         0.05974   0.00000  -0.13732  -0.16517   0.00000
  15        3S          0.10379   0.00000  -0.01815  -0.03414   0.00000
  16        3PX         0.00000   0.26347   0.00000   0.00000   0.32738
  17        3PY         0.31367   0.00000   0.10848  -0.07854   0.00000
  18        3PZ        -0.12876   0.00000   0.29825   0.35717   0.00000
  19        4S          0.17296   0.00000   0.03885  -0.02026   0.00000
  20        4PX         0.00000   0.17850   0.00000   0.00000   0.28855
  21        4PY         0.20253   0.00000   0.05788  -0.06210   0.00000
  22        4PZ        -0.07419   0.00000   0.23506   0.30572   0.00000
  23 3   Cl 1S         -0.00675  -0.01168  -0.00066   0.00164   0.00285
  24        2S          0.04094   0.07092   0.00375  -0.01000  -0.01733
  25        2PX         0.11525   0.07939  -0.04231   0.04914  -0.06554
  26        2PY         0.05369  -0.11525   0.02443   0.12228  -0.04914
  27        2PZ        -0.02987  -0.05173  -0.13732   0.08258   0.14304
  28        3S         -0.05190  -0.08989  -0.01815   0.01707   0.02956
  29        3PX        -0.24991  -0.16938   0.09395  -0.10775   0.14075
  30        3PY        -0.11919   0.24991  -0.05424  -0.26517   0.10775
  31        3PZ         0.06438   0.11151   0.29825  -0.17858  -0.30932
  32        4S         -0.08648  -0.14979   0.03885   0.01013   0.01754
  33        4PX        -0.16499  -0.10728   0.05012  -0.09806   0.11871
  34        4PY        -0.08324   0.16499  -0.02894  -0.23194   0.09806
  35        4PZ         0.03710   0.06425   0.23506  -0.15286  -0.26476
  36 4   Cl 1S         -0.00675   0.01168  -0.00066   0.00164  -0.00285
  37        2S          0.04094  -0.07092   0.00375  -0.01000   0.01733
  38        2PX        -0.11525   0.07939   0.04231  -0.04914  -0.06554
  39        2PY         0.05369   0.11525   0.02443   0.12228   0.04914
  40        2PZ        -0.02987   0.05173  -0.13732   0.08258  -0.14304
  41        3S         -0.05190   0.08989  -0.01815   0.01707  -0.02956
  42        3PX         0.24991  -0.16938  -0.09395   0.10775   0.14075
  43        3PY        -0.11919  -0.24991  -0.05424  -0.26517  -0.10775
  44        3PZ         0.06438  -0.11151   0.29825  -0.17858   0.30932
  45        4S         -0.08648   0.14979   0.03885   0.01013  -0.01754
  46        4PX         0.16499  -0.10728  -0.05012   0.09806   0.11871
  47        4PY        -0.08324  -0.16499  -0.02894  -0.23194  -0.09806
  48        4PZ         0.03710  -0.06425   0.23506  -0.15286   0.26476
                          26        27        28        29        30
                        (E)--O    (E)--O    (A2)--O   (A1)--V   (A1)--V
     Eigenvalues --    -0.47966  -0.47966  -0.47233  -0.05092   0.16384
   1 1   B  1S         -0.00000   0.00000   0.00000  -0.11125  -0.18658
   2        2S         -0.00000   0.00000   0.00000   0.10861   0.16603
   3        2PX         0.00000  -0.08399   0.00000   0.00000   0.00000
   4        2PY        -0.08399   0.00000   0.00000  -0.00000  -0.00000
   5        2PZ         0.00000   0.00000   0.00000   0.35174  -0.31381
   6        3S          0.00000   0.00000   0.00000   0.68934   1.93734
   7        3PX         0.00000   0.06611   0.00000   0.00000   0.00000
   8        3PY         0.06611   0.00000   0.00000   0.00000  -0.00000
   9        3PZ        -0.00000   0.00000   0.00000   0.50437  -0.99112
  10 2   Cl 1S          0.00017   0.00000   0.00000  -0.00555  -0.01413
  11        2S         -0.00079   0.00000   0.00000   0.03403   0.09033
  12        2PX         0.00000  -0.11698  -0.17038   0.00000   0.00000
  13        2PY        -0.15143   0.00000   0.00000  -0.04109  -0.09871
  14        2PZ        -0.13966   0.00000   0.00000   0.08417   0.00087
  15        3S          0.01138   0.00000   0.00000  -0.05564  -0.04778
  16        3PX         0.00000   0.25721   0.37499   0.00000   0.00000
  17        3PY         0.33074   0.00000   0.00000   0.09114   0.20131
  18        3PZ         0.30607   0.00000   0.00000  -0.18231   0.00116
  19        4S         -0.04837   0.00000   0.00000  -0.05799  -0.66912
  20        4PX         0.00000   0.20577   0.31099   0.00000   0.00000
  21        4PY         0.29986   0.00000   0.00000   0.10053   0.70645
  22        4PZ         0.24855   0.00000   0.00000  -0.25542  -0.04087
  23 3   Cl 1S         -0.00008   0.00015  -0.00000  -0.00555  -0.01413
  24        2S          0.00040  -0.00069   0.00000   0.03403   0.09033
  25        2PX         0.01492  -0.14282   0.08519  -0.03559  -0.08549
  26        2PY        -0.12559   0.01492   0.14756   0.02055   0.04936
  27        2PZ         0.06983  -0.12095   0.00000   0.08417   0.00087
  28        3S         -0.00569   0.00986   0.00000  -0.05564  -0.04778
  29        3PX        -0.03184   0.31236  -0.18749   0.07893   0.17434
  30        3PY         0.27559  -0.03184  -0.32475  -0.04557  -0.10065
  31        3PZ        -0.15303   0.26506  -0.00000  -0.18231   0.00116
  32        4S          0.02418  -0.04189  -0.00000  -0.05799  -0.66912
  33        4PX        -0.04074   0.27633  -0.15550   0.08706   0.61180
  34        4PY         0.22929  -0.04074  -0.26933  -0.05026  -0.35322
  35        4PZ        -0.12428   0.21525  -0.00000  -0.25542  -0.04087
  36 4   Cl 1S         -0.00008  -0.00015   0.00000  -0.00555  -0.01413
  37        2S          0.00040   0.00069  -0.00000   0.03403   0.09033
  38        2PX        -0.01492  -0.14282   0.08519   0.03559   0.08549
  39        2PY        -0.12559  -0.01492  -0.14756   0.02055   0.04936
  40        2PZ         0.06983   0.12095  -0.00000   0.08417   0.00087
  41        3S         -0.00569  -0.00986  -0.00000  -0.05564  -0.04778
  42        3PX         0.03184   0.31236  -0.18749  -0.07893  -0.17434
  43        3PY         0.27559   0.03184   0.32475  -0.04557  -0.10065
  44        3PZ        -0.15303  -0.26506   0.00000  -0.18231   0.00116
  45        4S          0.02418   0.04189   0.00000  -0.05799  -0.66912
  46        4PX         0.04074   0.27633  -0.15550  -0.08706  -0.61180
  47        4PY         0.22929   0.04074   0.26933  -0.05026  -0.35322
  48        4PZ        -0.12428  -0.21525   0.00000  -0.25542  -0.04087
                          31        32        33        34        35
                        (E)--V    (E)--V    (E)--V    (E)--V    (A1)--V
     Eigenvalues --     0.16700   0.16700   0.56087   0.56087   0.56624
   1 1   B  1S         -0.00000   0.00000   0.00000   0.00000   0.05105
   2        2S          0.00000   0.00000   0.00000  -0.00000  -0.33762
   3        2PX         0.00000   0.46859  -1.08418   0.00000   0.00000
   4        2PY         0.46859   0.00000   0.00000  -1.08418  -0.00000
   5        2PZ        -0.00000   0.00000   0.00000   0.00000  -1.05123
   6        3S          0.00000   0.00000   0.00000   0.00000  -0.31267
   7        3PX         0.00000   1.50656   1.77295   0.00000   0.00000
   8        3PY         1.50656   0.00000   0.00000   1.77295   0.00000
   9        3PZ        -0.00000   0.00000   0.00000  -0.00000   1.29710
  10 2   Cl 1S         -0.01812   0.00000   0.00000  -0.00521  -0.00731
  11        2S          0.11543   0.00000   0.00000   0.03504   0.04346
  12        2PX         0.00000   0.05085   0.04999   0.00000   0.00000
  13        2PY        -0.09025   0.00000   0.00000   0.07478  -0.00938
  14        2PZ         0.06386   0.00000   0.00000   0.01886   0.03272
  15        3S         -0.08121   0.00000   0.00000  -0.07293  -0.22877
  16        3PX         0.00000  -0.10768  -0.14447   0.00000   0.00000
  17        3PY         0.18045   0.00000   0.00000  -0.19470   0.03276
  18        3PZ        -0.13462   0.00000   0.00000  -0.07382  -0.09618
  19        4S         -0.86956   0.00000   0.00000  -0.66573   0.46486
  20        4PX         0.00000  -0.31478  -0.18999   0.00000   0.00000
  21        4PY         0.71135   0.00000   0.00000   0.34897  -0.22805
  22        4PZ        -0.38405   0.00000   0.00000  -0.11961  -0.06750
  23 3   Cl 1S          0.00906  -0.01569  -0.00451   0.00260  -0.00731
  24        2S         -0.05772   0.09997   0.03035  -0.01752   0.04346
  25        2PX         0.06110  -0.05497   0.06858  -0.01073  -0.00812
  26        2PY         0.01558   0.06110  -0.01073   0.05619   0.00469
  27        2PZ        -0.03193   0.05531   0.01633  -0.00943   0.03272
  28        3S          0.04060  -0.07033  -0.06316   0.03647  -0.22877
  29        3PX        -0.12476   0.10842  -0.18214   0.02175   0.02837
  30        3PY        -0.03564  -0.12476   0.02175  -0.15702  -0.01638
  31        3PZ         0.06731  -0.11658  -0.06393   0.03691  -0.09618
  32        4S          0.43478  -0.75306  -0.57654   0.33287   0.46486
  33        4PX        -0.44433   0.45482   0.21423  -0.23338  -0.19749
  34        4PY        -0.05825  -0.44433  -0.23338  -0.05525   0.11402
  35        4PZ         0.19202  -0.33260  -0.10359   0.05981  -0.06750
  36 4   Cl 1S          0.00906   0.01569   0.00451   0.00260  -0.00731
  37        2S         -0.05772  -0.09997  -0.03035  -0.01752   0.04346
  38        2PX        -0.06110  -0.05497   0.06858   0.01073   0.00812
  39        2PY         0.01558  -0.06110   0.01073   0.05619   0.00469
  40        2PZ        -0.03193  -0.05531  -0.01633  -0.00943   0.03272
  41        3S          0.04060   0.07033   0.06316   0.03647  -0.22877
  42        3PX         0.12476   0.10842  -0.18214  -0.02175  -0.02837
  43        3PY        -0.03564   0.12476  -0.02175  -0.15702  -0.01638
  44        3PZ         0.06731   0.11658   0.06393   0.03691  -0.09618
  45        4S          0.43478   0.75306   0.57654   0.33287   0.46486
  46        4PX         0.44433   0.45482   0.21423   0.23338   0.19749
  47        4PY        -0.05825   0.44433   0.23338  -0.05525   0.11402
  48        4PZ         0.19202   0.33260   0.10359   0.05981  -0.06750
                          36        37        38        39        40
                        (A1)--V   (E)--V    (E)--V    (E)--V    (E)--V
     Eigenvalues --     0.64049   0.72820   0.72820   0.74956   0.74956
   1 1   B  1S          0.05918   0.00000   0.00000  -0.00000   0.00000
   2        2S         -0.53012   0.00000   0.00000  -0.00000   0.00000
   3        2PX         0.00000   0.00000   0.15075   0.00000   0.00593
   4        2PY         0.00000   0.15075   0.00000  -0.00593   0.00000
   5        2PZ         0.27169   0.00000   0.00000   0.00000   0.00000
   6        3S         -0.29362  -0.00000   0.00000   0.00000   0.00000
   7        3PX         0.00000   0.00000  -0.92243   0.00000   0.27589
   8        3PY         0.00000  -0.92243   0.00000  -0.27589   0.00000
   9        3PZ         0.02318   0.00000   0.00000  -0.00000   0.00000
  10 2   Cl 1S         -0.03370  -0.04006   0.00000   0.01423   0.00000
  11        2S          0.20517   0.24294   0.00000  -0.08798   0.00000
  12        2PX         0.00000   0.00000   0.10760   0.00000  -0.22614
  13        2PY         0.00262   0.11505   0.00000  -0.14970   0.00000
  14        2PZ        -0.06644  -0.10958   0.00000  -0.06167   0.00000
  15        3S         -0.95295  -1.15506   0.00000   0.35648   0.00000
  16        3PX         0.00000   0.00000  -0.38818   0.00000   0.78403
  17        3PY         0.02202  -0.40031   0.00000   0.52285   0.00000
  18        3PZ         0.21340   0.37086   0.00000   0.21219   0.00000
  19        4S          1.00201   1.52968   0.00000  -0.21176   0.00000
  20        4PX         0.00000   0.00000   0.53637   0.00000  -0.75726
  21        4PY        -0.18299   0.16142   0.00000  -0.57780   0.00000
  22        4PZ        -0.12207  -0.19394   0.00000  -0.15394   0.00000
  23 3   Cl 1S         -0.03370   0.02003  -0.03469  -0.00712  -0.01233
  24        2S          0.20517  -0.12147   0.21039   0.04399   0.07620
  25        2PX         0.00227  -0.00322   0.11319   0.16274   0.05574
  26        2PY        -0.00131   0.10946  -0.00322   0.13218  -0.16274
  27        2PZ        -0.06644   0.05479  -0.09490   0.03083   0.05340
  28        3S         -0.95295   0.57753  -1.00031  -0.17824  -0.30872
  29        3PX         0.01907   0.00525  -0.39728  -0.56589  -0.19613
  30        3PY        -0.01101  -0.39121   0.00525  -0.45731   0.56589
  31        3PZ         0.21340  -0.18543   0.32118  -0.10610  -0.18376
  32        4S          1.00201  -0.76484   1.32474   0.10588   0.18339
  33        4PX        -0.15847   0.16236   0.25515   0.57810   0.24403
  34        4PY         0.09149   0.44263   0.16236   0.42350  -0.57810
  35        4PZ        -0.12207   0.09697  -0.16796   0.07697   0.13332
  36 4   Cl 1S         -0.03370   0.02003   0.03469  -0.00712   0.01233
  37        2S          0.20517  -0.12147  -0.21039   0.04399  -0.07620
  38        2PX        -0.00227   0.00322   0.11319  -0.16274   0.05574
  39        2PY        -0.00131   0.10946   0.00322   0.13218   0.16274
  40        2PZ        -0.06644   0.05479   0.09490   0.03083  -0.05340
  41        3S         -0.95295   0.57753   1.00031  -0.17824   0.30872
  42        3PX        -0.01907  -0.00525  -0.39728   0.56589  -0.19613
  43        3PY        -0.01101  -0.39121  -0.00525  -0.45731  -0.56589
  44        3PZ         0.21340  -0.18543  -0.32118  -0.10610   0.18376
  45        4S          1.00201  -0.76484  -1.32474   0.10588  -0.18339
  46        4PX         0.15847  -0.16236   0.25515  -0.57810   0.24403
  47        4PY         0.09149   0.44263  -0.16236   0.42350   0.57810
  48        4PZ        -0.12207   0.09697   0.16796   0.07697  -0.13332
                          41        42        43        44        45
                        (A1)--V   (A1)--V   (E)--V    (E)--V    (A2)--V
     Eigenvalues --     0.75256   0.81062   0.84533   0.84533   0.89000
   1 1   B  1S         -0.00295  -0.00972  -0.00000   0.00000   0.00000
   2        2S         -0.08723  -0.11449   0.00000   0.00000   0.00000
   3        2PX         0.00000   0.00000   0.00000  -0.18482   0.00000
   4        2PY         0.00000   0.00000  -0.18482   0.00000   0.00000
   5        2PZ         0.06884  -0.22205  -0.00000   0.00000   0.00000
   6        3S          1.18019   1.49764   0.00000   0.00000   0.00000
   7        3PX         0.00000   0.00000   0.00000   1.14342  -0.00000
   8        3PY         0.00000  -0.00000   1.14342   0.00000   0.00000
   9        3PZ        -0.64798   0.17107  -0.00000   0.00000   0.00000
  10 2   Cl 1S         -0.00615   0.01059   0.00847   0.00000   0.00000
  11        2S          0.04014  -0.06211  -0.04881   0.00000   0.00000
  12        2PX         0.00000   0.00000   0.00000  -0.10286   0.20046
  13        2PY         0.18467   0.08581  -0.02877   0.00000   0.00000
  14        2PZ         0.07798  -0.17009  -0.25463   0.00000   0.00000
  15        3S         -0.08295   0.40798   0.34152   0.00000   0.00000
  16        3PX         0.00000   0.00000   0.00000   0.38317  -0.73159
  17        3PY        -0.65035  -0.31876   0.10593   0.00000   0.00000
  18        3PZ        -0.27423   0.61163   0.91622   0.00000   0.00000
  19        4S         -0.25442  -0.70564  -0.86963   0.00000   0.00000
  20        4PX         0.00000   0.00000   0.00000  -0.59535   0.82546
  21        4PY         0.89155   0.57564   0.16554   0.00000   0.00000
  22        4PZ         0.25749  -0.75503  -1.13689   0.00000   0.00000
  23 3   Cl 1S         -0.00615   0.01059  -0.00423   0.00733   0.00000
  24        2S          0.04014  -0.06211   0.02440  -0.04227  -0.00000
  25        2PX         0.15993   0.07431  -0.03208  -0.04730  -0.10023
  26        2PY        -0.09233  -0.04290  -0.08434  -0.03208  -0.17360
  27        2PZ         0.07798  -0.17009   0.12731  -0.22051   0.00000
  28        3S         -0.08295   0.40798  -0.17076   0.29577   0.00000
  29        3PX        -0.56322  -0.27606   0.12005   0.17524   0.36579
  30        3PY         0.32517   0.15938   0.31386   0.12005   0.63357
  31        3PZ        -0.27423   0.61163  -0.45811   0.79347  -0.00000
  32        4S         -0.25442  -0.70564   0.43482  -0.75312   0.00000
  33        4PX         0.77211   0.49852  -0.32947  -0.02468  -0.41273
  34        4PY        -0.44578  -0.28782  -0.40512  -0.32947  -0.71487
  35        4PZ         0.25749  -0.75503   0.56844  -0.98458   0.00000
  36 4   Cl 1S         -0.00615   0.01059  -0.00423  -0.00733  -0.00000
  37        2S          0.04014  -0.06211   0.02440   0.04227   0.00000
  38        2PX        -0.15993  -0.07431   0.03208  -0.04730  -0.10023
  39        2PY        -0.09233  -0.04290  -0.08434   0.03208   0.17360
  40        2PZ         0.07798  -0.17009   0.12731   0.22051  -0.00000
  41        3S         -0.08295   0.40798  -0.17076  -0.29577  -0.00000
  42        3PX         0.56322   0.27606  -0.12005   0.17524   0.36579
  43        3PY         0.32517   0.15938   0.31386  -0.12005  -0.63357
  44        3PZ        -0.27423   0.61163  -0.45811  -0.79347   0.00000
  45        4S         -0.25442  -0.70564   0.43482   0.75312  -0.00000
  46        4PX        -0.77211  -0.49852   0.32947  -0.02468  -0.41273
  47        4PY        -0.44578  -0.28782  -0.40512   0.32947   0.71487
  48        4PZ         0.25749  -0.75503   0.56844   0.98458  -0.00000
                          46        47        48
                        (E)--V    (E)--V    (A1)--V
     Eigenvalues --     1.02246   1.02246   1.20733
   1 1   B  1S          0.00000   0.00000  -0.10350
   2        2S          0.00000   0.00000  -2.06935
   3        2PX         0.00000  -0.20725   0.00000
   4        2PY        -0.20725   0.00000  -0.00000
   5        2PZ        -0.00000   0.00000   0.23911
   6        3S         -0.00000   0.00000   5.09712
   7        3PX         0.00000  -0.81165   0.00000
   8        3PY        -0.81165   0.00000  -0.00000
   9        3PZ         0.00000   0.00000  -1.70810
  10 2   Cl 1S         -0.03712   0.00000   0.01360
  11        2S          0.22376   0.00000  -0.07328
  12        2PX         0.00000  -0.07256   0.00000
  13        2PY        -0.21229   0.00000  -0.01128
  14        2PZ         0.03357   0.00000   0.02377
  15        3S         -1.30791   0.00000   0.74398
  16        3PX         0.00000   0.26918   0.00000
  17        3PY         0.83144   0.00000   0.02302
  18        3PZ        -0.13681   0.00000  -0.10430
  19        4S          1.86341   0.00000  -2.07645
  20        4PX         0.00000  -0.23401   0.00000
  21        4PY        -1.39688   0.00000   1.00970
  22        4PZ         0.32792   0.00000   0.04010
  23 3   Cl 1S          0.01856  -0.03215   0.01360
  24        2S         -0.11188   0.19378  -0.07328
  25        2PX         0.06050  -0.17736  -0.00976
  26        2PY        -0.10750   0.06050   0.00564
  27        2PZ        -0.01678   0.02907   0.02377
  28        3S          0.65395  -1.13268   0.74398
  29        3PX        -0.24346   0.69088   0.01994
  30        3PY         0.40975  -0.24346  -0.01151
  31        3PZ         0.06841  -0.11848  -0.10430
  32        4S         -0.93170   1.61376  -2.07645
  33        4PX         0.50354  -1.10616   0.87443
  34        4PY        -0.52473   0.50354  -0.50485
  35        4PZ        -0.16396   0.28399   0.04010
  36 4   Cl 1S          0.01856   0.03215   0.01360
  37        2S         -0.11188  -0.19378  -0.07328
  38        2PX        -0.06050  -0.17736   0.00976
  39        2PY        -0.10750  -0.06050   0.00564
  40        2PZ        -0.01678  -0.02907   0.02377
  41        3S          0.65395   1.13268   0.74398
  42        3PX         0.24346   0.69088  -0.01994
  43        3PY         0.40975   0.24346  -0.01151
  44        3PZ         0.06841   0.11848  -0.10430
  45        4S         -0.93170  -1.61376  -2.07645
  46        4PX        -0.50354  -1.10616  -0.87443
  47        4PY        -0.52473  -0.50354  -0.50485
  48        4PZ        -0.16396  -0.28399   0.04010
     Density Matrix:
                           1         2         3         4         5
   1 1   B  1S          2.02716
   2        2S          0.09963   0.12846
   3        2PX         0.00000  -0.00000   0.21737
   4        2PY        -0.00000   0.00000  -0.00000   0.21737
   5        2PZ         0.01532  -0.01700   0.00000  -0.00000   0.05294
   6        3S         -0.34001   0.22941  -0.00000   0.00000  -0.06728
   7        3PX         0.00000  -0.00000   0.09343   0.00000   0.00000
   8        3PY        -0.00000   0.00000   0.00000   0.09343  -0.00000
   9        3PZ         0.05491  -0.01580   0.00000  -0.00000   0.06187
  10 2   Cl 1S         -0.00047   0.00696   0.00000   0.00581  -0.00178
  11        2S          0.00377  -0.01919  -0.00000  -0.03266   0.00842
  12        2PX        -0.00000   0.00000  -0.01467   0.00000  -0.00000
  13        2PY        -0.03787   0.04370   0.00000   0.12052  -0.03106
  14        2PZ         0.01904  -0.02690  -0.00000  -0.05183  -0.03659
  15        3S         -0.02115   0.01376   0.00000   0.03617  -0.01572
  16        3PX         0.00000  -0.00000   0.02880  -0.00000   0.00000
  17        3PY         0.07953  -0.09207  -0.00000  -0.25672   0.06554
  18        3PZ        -0.03805   0.06074   0.00000   0.10695   0.07791
  19        4S          0.08591  -0.04494   0.00000   0.00009   0.02506
  20        4PX         0.00000  -0.00000  -0.00223  -0.00000   0.00000
  21        4PY         0.00541  -0.03222  -0.00000  -0.18698   0.02875
  22        4PZ        -0.02676   0.04353   0.00000   0.07474   0.06283
  23 3   Cl 1S         -0.00047   0.00696   0.00503  -0.00290  -0.00178
  24        2S          0.00377  -0.01919  -0.02829   0.01633   0.00842
  25        2PX        -0.03280   0.03785   0.08672  -0.05854  -0.02690
  26        2PY         0.01893  -0.02185  -0.05854   0.01913   0.01553
  27        2PZ         0.01904  -0.02690  -0.04489   0.02592  -0.03659
  28        3S         -0.02115   0.01376   0.03133  -0.01809  -0.01572
  29        3PX         0.06887  -0.07974  -0.18534   0.12364   0.05676
  30        3PY        -0.03976   0.04604   0.12364  -0.04258  -0.03277
  31        3PZ        -0.03805   0.06074   0.09262  -0.05347   0.07791
  32        4S          0.08591  -0.04494   0.00008  -0.00005   0.02506
  33        4PX         0.00469  -0.02790  -0.14079   0.08000   0.02489
  34        4PY        -0.00271   0.01611   0.08000  -0.04842  -0.01437
  35        4PZ        -0.02676   0.04353   0.06473  -0.03737   0.06283
  36 4   Cl 1S         -0.00047   0.00696  -0.00503  -0.00290  -0.00178
  37        2S          0.00377  -0.01919   0.02829   0.01633   0.00842
  38        2PX         0.03280  -0.03785   0.08672   0.05854   0.02690
  39        2PY         0.01893  -0.02185   0.05854   0.01913   0.01553
  40        2PZ         0.01904  -0.02690   0.04489   0.02592  -0.03659
  41        3S         -0.02115   0.01376  -0.03133  -0.01809  -0.01572
  42        3PX        -0.06887   0.07974  -0.18534  -0.12364  -0.05676
  43        3PY        -0.03976   0.04604  -0.12364  -0.04258  -0.03277
  44        3PZ        -0.03805   0.06074  -0.09262  -0.05347   0.07791
  45        4S          0.08591  -0.04494  -0.00008  -0.00005   0.02506
  46        4PX        -0.00469   0.02790  -0.14079  -0.08000  -0.02489
  47        4PY        -0.00271   0.01611  -0.08000  -0.04842  -0.01437
  48        4PZ        -0.02676   0.04353  -0.06473  -0.03737   0.06283
                           6         7         8         9        10
   6        3S          0.61973
   7        3PX        -0.00000   0.07591
   8        3PY         0.00000  -0.00000   0.07591
   9        3PZ        -0.09278   0.00000  -0.00000   0.07592
  10 2   Cl 1S         -0.03767  -0.00000  -0.02358   0.00957   2.14431
  11        2S          0.11792   0.00000   0.07246  -0.02607  -0.57433
  12        2PX         0.00000  -0.03689   0.00000  -0.00000  -0.00000
  13        2PY         0.10198   0.00000   0.02135  -0.03224  -0.00465
  14        2PZ        -0.03910  -0.00000  -0.03735  -0.03369   0.00245
  15        3S         -0.04972  -0.00000  -0.03997   0.00156  -0.02819
  16        3PX        -0.00000   0.10551  -0.00000   0.00000   0.00000
  17        3PY        -0.25967  -0.00000  -0.07388   0.08214   0.01255
  18        3PZ         0.08175   0.00000   0.11203   0.09191  -0.00620
  19        4S         -0.22828  -0.00000  -0.07955   0.05348   0.16396
  20        4PX        -0.00000   0.07019  -0.00000   0.00000  -0.00000
  21        4PY        -0.08736  -0.00000  -0.03467   0.03479  -0.01726
  22        4PZ         0.05246   0.00000   0.07947   0.07379   0.00446
  23 3   Cl 1S         -0.03767  -0.02042   0.01179   0.00957   0.00001
  24        2S          0.11792   0.06275  -0.03623  -0.02607   0.00004
  25        2PX         0.08831   0.00679  -0.02522  -0.02792  -0.00031
  26        2PY        -0.05099  -0.02522  -0.02233   0.01612   0.00150
  27        2PZ        -0.03910  -0.03234   0.01867  -0.03369  -0.00014
  28        3S         -0.04972  -0.03461   0.01998   0.00156   0.00125
  29        3PX        -0.22488  -0.02903   0.07768   0.07113   0.00022
  30        3PY         0.12984   0.07768   0.06066  -0.04107  -0.00275
  31        3PZ         0.08175   0.09702  -0.05601   0.09191   0.00051
  32        4S         -0.22828  -0.06889   0.03977   0.05348  -0.00022
  33        4PX        -0.07566  -0.00845   0.04541   0.03013   0.00086
  34        4PY         0.04368   0.04541   0.04398  -0.01739  -0.00209
  35        4PZ         0.05246   0.06883  -0.03974   0.07379  -0.00091
  36 4   Cl 1S         -0.03767   0.02042   0.01179   0.00957   0.00001
  37        2S          0.11792  -0.06275  -0.03623  -0.02607   0.00004
  38        2PX        -0.08831   0.00679   0.02522   0.02792   0.00031
  39        2PY        -0.05099   0.02522  -0.02233   0.01612   0.00150
  40        2PZ        -0.03910   0.03234   0.01867  -0.03369  -0.00014
  41        3S         -0.04972   0.03461   0.01998   0.00156   0.00125
  42        3PX         0.22488  -0.02903  -0.07768  -0.07113  -0.00022
  43        3PY         0.12984  -0.07768   0.06066  -0.04107  -0.00275
  44        3PZ         0.08175  -0.09702  -0.05601   0.09191   0.00051
  45        4S         -0.22828   0.06889   0.03977   0.05348  -0.00022
  46        4PX         0.07566  -0.00845  -0.04541  -0.03013  -0.00086
  47        4PY         0.04368  -0.04541   0.04398  -0.01739  -0.00209
  48        4PZ         0.05246  -0.06883  -0.03974   0.07379  -0.00091
                          11        12        13        14        15
  11        2S          2.39468
  12        2PX         0.00000   2.05855
  13        2PY         0.02526  -0.00000   2.01780
  14        2PZ        -0.01386   0.00000   0.02102   2.03784
  15        3S         -0.29374  -0.00000  -0.03936   0.02361   0.76385
  16        3PX        -0.00000  -0.19604   0.00000  -0.00000   0.00000
  17        3PY        -0.05899   0.00000  -0.10461  -0.04750   0.05712
  18        3PZ         0.03165  -0.00000  -0.04720  -0.14857  -0.04084
  19        4S         -0.68146  -0.00000  -0.04262   0.02147   0.63414
  20        4PX         0.00000  -0.33289   0.00000  -0.00000   0.00000
  21        4PY         0.02645   0.00000  -0.24399  -0.04398   0.02624
  22        4PZ        -0.00070  -0.00000  -0.04032  -0.29681  -0.02353
  23 3   Cl 1S          0.00004   0.00114  -0.00101  -0.00014   0.00125
  24        2S         -0.00116  -0.00757   0.00724   0.00076  -0.00162
  25        2PX         0.00249   0.00482  -0.00850  -0.00008   0.00242
  26        2PY        -0.01018  -0.01054   0.01581  -0.00279   0.00365
  27        2PZ         0.00076  -0.00246   0.00132  -0.01114   0.00067
  28        3S         -0.00162   0.00437   0.00027   0.00067   0.00094
  29        3PX        -0.00455  -0.01030   0.01810  -0.00012  -0.00040
  30        3PY         0.02166   0.02371  -0.03414   0.00529  -0.01492
  31        3PZ        -0.00231   0.00467  -0.00307   0.02443  -0.00408
  32        4S          0.00156   0.03508  -0.04556  -0.01046  -0.00682
  33        4PX        -0.00432  -0.02065   0.03439   0.00995   0.00225
  34        4PY         0.01549   0.03423  -0.05324   0.00755  -0.01097
  35        4PZ         0.00130   0.01149  -0.00087   0.02449  -0.00376
  36 4   Cl 1S          0.00004  -0.00114  -0.00101  -0.00014   0.00125
  37        2S         -0.00116   0.00757   0.00724   0.00076  -0.00162
  38        2PX        -0.00249   0.00482   0.00850   0.00008  -0.00242
  39        2PY        -0.01018   0.01054   0.01581  -0.00279   0.00365
  40        2PZ         0.00076   0.00246   0.00132  -0.01114   0.00067
  41        3S         -0.00162  -0.00437   0.00027   0.00067   0.00094
  42        3PX         0.00455  -0.01030  -0.01810   0.00012   0.00040
  43        3PY         0.02166  -0.02371  -0.03414   0.00529  -0.01492
  44        3PZ        -0.00231  -0.00467  -0.00307   0.02443  -0.00408
  45        4S          0.00156  -0.03508  -0.04556  -0.01046  -0.00682
  46        4PX         0.00432  -0.02065  -0.03439  -0.00995  -0.00225
  47        4PY         0.01549  -0.03423  -0.05324   0.00755  -0.01097
  48        4PZ         0.00130  -0.01149  -0.00087   0.02449  -0.00376
                          16        17        18        19        20
  16        3PX         0.77953
  17        3PY        -0.00000   0.58678
  18        3PZ         0.00000   0.10166   0.67302
  19        4S          0.00000   0.15438  -0.07201   0.68891
  20        4PX         0.61819  -0.00000   0.00000   0.00000   0.50966
  21        4PY        -0.00000   0.38850   0.11088   0.04238  -0.00000
  22        4PZ         0.00000   0.10399   0.52997  -0.03678   0.00000
  23 3   Cl 1S         -0.00227   0.00157   0.00051  -0.00022  -0.00138
  24        2S          0.01649  -0.01477  -0.00231   0.00156   0.01126
  25        2PX        -0.01007   0.01797  -0.00032  -0.02191  -0.01538
  26        2PY         0.02357  -0.03436   0.00558   0.05316   0.03118
  27        2PZ         0.00452  -0.00275   0.02443  -0.01046   0.01152
  28        3S         -0.01312   0.00712  -0.00408  -0.00682  -0.00837
  29        3PX         0.02227  -0.04089   0.00207   0.03609   0.03246
  30        3PY        -0.05736   0.07899  -0.00918  -0.11318  -0.06325
  31        3PZ        -0.00692   0.00638  -0.05445   0.03749  -0.02974
  32        4S         -0.07997   0.08785   0.03749   0.03354  -0.05794
  33        4PX         0.04591  -0.06940  -0.03026   0.00687   0.04695
  34        4PY        -0.07102   0.10905  -0.01687  -0.07087  -0.06876
  35        4PZ        -0.02853   0.00122  -0.05138   0.02899  -0.04102
  36 4   Cl 1S          0.00227   0.00157   0.00051  -0.00022   0.00138
  37        2S         -0.01649  -0.01477  -0.00231   0.00156  -0.01126
  38        2PX        -0.01007  -0.01797   0.00032   0.02191  -0.01538
  39        2PY        -0.02357  -0.03436   0.00558   0.05316  -0.03118
  40        2PZ        -0.00452  -0.00275   0.02443  -0.01046  -0.01152
  41        3S          0.01312   0.00712  -0.00408  -0.00682   0.00837
  42        3PX         0.02227   0.04089  -0.00207  -0.03609   0.03246
  43        3PY         0.05736   0.07899  -0.00918  -0.11318   0.06325
  44        3PZ         0.00692   0.00638  -0.05445   0.03749   0.02974
  45        4S          0.07997   0.08785   0.03749   0.03354   0.05794
  46        4PX         0.04591   0.06940   0.03026  -0.00687   0.04695
  47        4PY         0.07102   0.10905  -0.01687  -0.07087   0.06876
  48        4PZ         0.02853   0.00122  -0.05138   0.02899   0.04102
                          21        22        23        24        25
  21        4PY         0.29895
  22        4PZ         0.10018   0.43640
  23 3   Cl 1S          0.00179  -0.00091   2.14431
  24        2S         -0.01148   0.00130  -0.57433   2.39468
  25        2PX         0.03134   0.00499  -0.00402   0.02188   2.02799
  26        2PY        -0.05851   0.01039   0.00232  -0.01263   0.01765
  27        2PZ         0.00484   0.02449   0.00245  -0.01386   0.01820
  28        3S          0.00743  -0.00376  -0.02819  -0.29374  -0.03408
  29        3PX        -0.06164  -0.01321   0.01087  -0.05109  -0.12747
  30        3PY         0.12250  -0.02532  -0.00627   0.02949  -0.03959
  31        3PZ        -0.01777  -0.05138  -0.00620   0.03165  -0.04087
  32        4S          0.04139   0.02899   0.16396  -0.68146  -0.03691
  33        4PX        -0.06221  -0.03593  -0.01495   0.02290  -0.26621
  34        4PY         0.12257  -0.02661   0.00863  -0.01322  -0.03850
  35        4PZ        -0.01781  -0.04860   0.00446  -0.00070  -0.03492
  36 4   Cl 1S          0.00179  -0.00091   0.00001   0.00004  -0.00145
  37        2S         -0.01148   0.00130   0.00004  -0.00116   0.01006
  38        2PX        -0.03134  -0.00499   0.00145  -0.01006   0.02131
  39        2PY        -0.05851   0.01039  -0.00048   0.00294  -0.00102
  40        2PZ         0.00484   0.02449  -0.00014   0.00076   0.00237
  41        3S          0.00743  -0.00376   0.00125  -0.00162  -0.00196
  42        3PX         0.06164   0.01321  -0.00249   0.02104  -0.04628
  43        3PY         0.12250  -0.02532   0.00118  -0.00689   0.00267
  44        3PZ        -0.01777  -0.05138   0.00051  -0.00231  -0.00499
  45        4S          0.04139   0.02899  -0.00022   0.00156  -0.05699
  46        4PX         0.06221   0.03593  -0.00224   0.01557  -0.07480
  47        4PY         0.12257  -0.02661   0.00030  -0.00401  -0.00312
  48        4PZ        -0.01781  -0.04860  -0.00091   0.00130  -0.00650
                          26        27        28        29        30
  26        2PY         2.04836
  27        2PZ        -0.01051   2.03784
  28        3S          0.01968   0.02361   0.76385
  29        3PX        -0.03959  -0.04114   0.04947   0.63497
  30        3PY        -0.17319   0.02375  -0.02856   0.08346   0.73134
  31        3PZ         0.02360  -0.14857  -0.04084   0.08804  -0.05083
  32        4S          0.02131   0.02147   0.63414   0.13369  -0.07719
  33        4PX        -0.03850  -0.03809   0.02273   0.44592   0.09946
  34        4PY        -0.31066   0.02199  -0.01312   0.09946   0.56076
  35        4PZ         0.02016  -0.29681  -0.02353   0.09005  -0.05199
  36 4   Cl 1S         -0.00048  -0.00014   0.00125   0.00249   0.00118
  37        2S          0.00294   0.00076  -0.00162  -0.02104  -0.00689
  38        2PX         0.00102  -0.00237   0.00196  -0.04628  -0.00267
  39        2PY        -0.00068   0.00147  -0.00392   0.00293   0.00184
  40        2PZ         0.00147  -0.01114   0.00067  -0.00465  -0.00254
  41        3S         -0.00392   0.00067   0.00094   0.01272   0.00780
  42        3PX        -0.00293   0.00465  -0.01272   0.10735   0.00823
  43        3PY         0.00184  -0.00254   0.00780  -0.00823  -0.00609
  44        3PZ        -0.00251   0.02443  -0.00408   0.00899   0.00280
  45        4S         -0.00760  -0.01046  -0.00682   0.11607   0.02533
  46        4PX        -0.00296   0.00156  -0.01063   0.15407   0.00857
  47        4PY         0.00091  -0.01240   0.00353   0.00695   0.00089
  48        4PZ        -0.00952   0.02449  -0.00376   0.01532   0.02410
                          31        32        33        34        35
  31        3PZ         0.67302
  32        4S         -0.07201   0.68891
  33        4PX         0.09602   0.03671   0.35162
  34        4PY        -0.05544  -0.02119   0.09124   0.45698
  35        4PZ         0.52997  -0.03678   0.08676  -0.05009   0.43640
  36 4   Cl 1S          0.00051  -0.00022   0.00224   0.00030  -0.00091
  37        2S         -0.00231   0.00156  -0.01557  -0.00401   0.00130
  38        2PX         0.00499   0.05699  -0.07480   0.00312   0.00650
  39        2PY        -0.00251  -0.00760   0.00296   0.00091  -0.00952
  40        2PZ         0.02443  -0.01046  -0.00156  -0.01240   0.02449
  41        3S         -0.00408  -0.00682   0.01063   0.00353  -0.00376
  42        3PX        -0.00899  -0.11607   0.15407  -0.00695  -0.01532
  43        3PY         0.00280   0.02533  -0.00857   0.00089   0.02410
  44        3PZ        -0.05445   0.03749  -0.00052   0.03464  -0.05138
  45        4S          0.03749   0.03354   0.06481   0.02949   0.02899
  46        4PX         0.00052  -0.06481   0.16037   0.00328  -0.00508
  47        4PY         0.03464   0.02949  -0.00328   0.00914   0.04443
  48        4PZ        -0.05138   0.02899   0.00508   0.04443  -0.04860
                          36        37        38        39        40
  36 4   Cl 1S          2.14431
  37        2S         -0.57433   2.39468
  38        2PX         0.00402  -0.02188   2.02799
  39        2PY         0.00232  -0.01263  -0.01765   2.04836
  40        2PZ         0.00245  -0.01386  -0.01820  -0.01051   2.03784
  41        3S         -0.02819  -0.29374   0.03408   0.01968   0.02361
  42        3PX        -0.01087   0.05109  -0.12747   0.03959   0.04114
  43        3PY        -0.00627   0.02949   0.03959  -0.17319   0.02375
  44        3PZ        -0.00620   0.03165   0.04087   0.02360  -0.14857
  45        4S          0.16396  -0.68146   0.03691   0.02131   0.02147
  46        4PX         0.01495  -0.02290  -0.26621   0.03850   0.03809
  47        4PY         0.00863  -0.01322   0.03850  -0.31066   0.02199
  48        4PZ         0.00446  -0.00070   0.03492   0.02016  -0.29681
                          41        42        43        44        45
  41        3S          0.76385
  42        3PX        -0.04947   0.63497
  43        3PY        -0.02856  -0.08346   0.73134
  44        3PZ        -0.04084  -0.08804  -0.05083   0.67302
  45        4S          0.63414  -0.13369  -0.07719  -0.07201   0.68891
  46        4PX        -0.02273   0.44592  -0.09946  -0.09602  -0.03671
  47        4PY        -0.01312  -0.09946   0.56076  -0.05544  -0.02119
  48        4PZ        -0.02353  -0.09005  -0.05199   0.52997  -0.03678
                          46        47        48
  46        4PX         0.35162
  47        4PY        -0.09124   0.45698
  48        4PZ        -0.08676  -0.05009   0.43640
    Full Mulliken population analysis:
                           1         2         3         4         5
   1 1   B  1S          2.02716
   2        2S          0.01822   0.12846
   3        2PX         0.00000   0.00000   0.21737
   4        2PY         0.00000   0.00000  -0.00000   0.21737
   5        2PZ         0.00000   0.00000   0.00000   0.00000   0.05294
   6        3S         -0.05911   0.17786   0.00000   0.00000   0.00000
   7        3PX         0.00000   0.00000   0.05151  -0.00000   0.00000
   8        3PY         0.00000   0.00000  -0.00000   0.05151   0.00000
   9        3PZ         0.00000   0.00000   0.00000   0.00000   0.03411
  10 2   Cl 1S         -0.00000   0.00000   0.00000   0.00000   0.00000
  11        2S          0.00000  -0.00005  -0.00000  -0.00025  -0.00002
  12        2PX         0.00000  -0.00000  -0.00001  -0.00000  -0.00000
  13        2PY         0.00000  -0.00011  -0.00000  -0.00082  -0.00008
  14        2PZ         0.00000  -0.00002  -0.00000  -0.00014   0.00001
  15        3S         -0.00003   0.00073   0.00000   0.00347   0.00053
  16        3PX        -0.00000   0.00000   0.00087   0.00000   0.00000
  17        3PY        -0.00029   0.00851   0.00000   0.03789   0.00412
  18        3PZ        -0.00005   0.00199   0.00000   0.00672   0.00062
  19        4S          0.00227  -0.00822   0.00000   0.00002  -0.00164
  20        4PX        -0.00000   0.00000  -0.00030   0.00000   0.00000
  21        4PY        -0.00038   0.01176   0.00000   0.04669   0.00389
  22        4PZ        -0.00067   0.00562   0.00000   0.01011   0.00535
  23 3   Cl 1S         -0.00000   0.00000   0.00000   0.00000   0.00000
  24        2S          0.00000  -0.00005  -0.00019  -0.00006  -0.00002
  25        2PX         0.00000  -0.00008  -0.00043  -0.00019  -0.00006
  26        2PY         0.00000  -0.00003  -0.00019  -0.00002  -0.00002
  27        2PZ         0.00000  -0.00002  -0.00010  -0.00003   0.00001
  28        3S         -0.00003   0.00073   0.00260   0.00087   0.00053
  29        3PX        -0.00022   0.00639   0.01912   0.00951   0.00309
  30        3PY        -0.00007   0.00213   0.00951   0.00061   0.00103
  31        3PZ        -0.00005   0.00199   0.00504   0.00168   0.00062
  32        4S          0.00227  -0.00822   0.00001   0.00000  -0.00164
  33        4PX        -0.00029   0.00882   0.02168   0.01326   0.00292
  34        4PY        -0.00010   0.00294   0.01326  -0.00181   0.00097
  35        4PZ        -0.00067   0.00562   0.00759   0.00253   0.00535
  36 4   Cl 1S         -0.00000   0.00000   0.00000   0.00000   0.00000
  37        2S          0.00000  -0.00005  -0.00019  -0.00006  -0.00002
  38        2PX         0.00000  -0.00008  -0.00043  -0.00019  -0.00006
  39        2PY         0.00000  -0.00003  -0.00019  -0.00002  -0.00002
  40        2PZ         0.00000  -0.00002  -0.00010  -0.00003   0.00001
  41        3S         -0.00003   0.00073   0.00260   0.00087   0.00053
  42        3PX        -0.00022   0.00639   0.01912   0.00951   0.00309
  43        3PY        -0.00007   0.00213   0.00951   0.00061   0.00103
  44        3PZ        -0.00005   0.00199   0.00504   0.00168   0.00062
  45        4S          0.00227  -0.00822   0.00001   0.00000  -0.00164
  46        4PX        -0.00029   0.00882   0.02168   0.01326   0.00292
  47        4PY        -0.00010   0.00294   0.01326  -0.00181   0.00097
  48        4PZ        -0.00067   0.00562   0.00759   0.00253   0.00535
                           6         7         8         9        10
   6        3S          0.61973
   7        3PX         0.00000   0.07591
   8        3PY         0.00000  -0.00000   0.07591
   9        3PZ         0.00000   0.00000   0.00000   0.07592
  10 2   Cl 1S         -0.00020  -0.00000  -0.00031  -0.00004   2.14431
  11        2S          0.00499   0.00000   0.00714   0.00091  -0.14900
  12        2PX        -0.00000  -0.00038  -0.00000  -0.00000   0.00000
  13        2PY        -0.00126  -0.00000  -0.00040  -0.00033   0.00000
  14        2PZ        -0.00017  -0.00000  -0.00038  -0.00023   0.00000
  15        3S         -0.01000  -0.00000  -0.01540  -0.00021  -0.00166
  16        3PX         0.00000   0.01400   0.00000   0.00000   0.00000
  17        3PY         0.04138   0.00000   0.01332   0.00909   0.00000
  18        3PZ         0.00461   0.00000   0.01240   0.00860   0.00000
  19        4S         -0.08875  -0.00000  -0.04253  -0.01011   0.00556
  20        4PX         0.00000   0.02700   0.00000   0.00000   0.00000
  21        4PY         0.04034   0.00000   0.00868   0.00781   0.00000
  22        4PZ         0.00856   0.00000   0.01784   0.02252   0.00000
  23 3   Cl 1S         -0.00020  -0.00023  -0.00008  -0.00004   0.00000
  24        2S          0.00499   0.00535   0.00178   0.00091   0.00000
  25        2PX        -0.00094  -0.00008  -0.00031  -0.00025   0.00000
  26        2PY        -0.00031  -0.00031  -0.00007  -0.00008   0.00000
  27        2PZ        -0.00017  -0.00029  -0.00010  -0.00023   0.00000
  28        3S         -0.01000  -0.01155  -0.00385  -0.00021   0.00000
  29        3PX         0.03103   0.00296   0.01053   0.00682  -0.00000
  30        3PY         0.01034   0.01053   0.00330   0.00227  -0.00000
  31        3PZ         0.00461   0.00930   0.00310   0.00860  -0.00000
  32        4S         -0.08875  -0.03190  -0.01063  -0.01011  -0.00000
  33        4PX         0.03025   0.00077   0.01249   0.00586  -0.00000
  34        4PY         0.01008   0.01249   0.00993   0.00195  -0.00000
  35        4PZ         0.00856   0.01338   0.00446   0.02252   0.00000
  36 4   Cl 1S         -0.00020  -0.00023  -0.00008  -0.00004   0.00000
  37        2S          0.00499   0.00535   0.00178   0.00091   0.00000
  38        2PX        -0.00094  -0.00008  -0.00031  -0.00025   0.00000
  39        2PY        -0.00031  -0.00031  -0.00007  -0.00008   0.00000
  40        2PZ        -0.00017  -0.00029  -0.00010  -0.00023   0.00000
  41        3S         -0.01000  -0.01155  -0.00385  -0.00021   0.00000
  42        3PX         0.03103   0.00296   0.01053   0.00682  -0.00000
  43        3PY         0.01034   0.01053   0.00330   0.00227  -0.00000
  44        3PZ         0.00461   0.00930   0.00310   0.00860   0.00000
  45        4S         -0.08875  -0.03190  -0.01063  -0.01011  -0.00000
  46        4PX         0.03025   0.00077   0.01249   0.00586  -0.00000
  47        4PY         0.01008   0.01249   0.00993   0.00195  -0.00000
  48        4PZ         0.00856   0.01338   0.00446   0.02252  -0.00000
                          11        12        13        14        15
  11        2S          2.39468
  12        2PX         0.00000   2.05855
  13        2PY         0.00000   0.00000   2.01780
  14        2PZ         0.00000   0.00000  -0.00000   2.03784
  15        3S         -0.12772   0.00000   0.00000   0.00000   0.76385
  16        3PX         0.00000  -0.06299  -0.00000  -0.00000   0.00000
  17        3PY         0.00000  -0.00000  -0.03361   0.00000   0.00000
  18        3PZ         0.00000  -0.00000   0.00000  -0.04774   0.00000
  19        4S         -0.17031   0.00000   0.00000   0.00000   0.52271
  20        4PX         0.00000  -0.02335  -0.00000  -0.00000   0.00000
  21        4PY         0.00000  -0.00000  -0.01712   0.00000   0.00000
  22        4PZ         0.00000  -0.00000   0.00000  -0.02082   0.00000
  23 3   Cl 1S          0.00000   0.00000   0.00000   0.00000   0.00000
  24        2S          0.00000   0.00000   0.00000   0.00000  -0.00000
  25        2PX         0.00000   0.00000   0.00000   0.00000  -0.00000
  26        2PY         0.00000   0.00000   0.00000   0.00000   0.00000
  27        2PZ         0.00000   0.00000   0.00000   0.00000  -0.00000
  28        3S         -0.00000   0.00000  -0.00000   0.00000   0.00000
  29        3PX         0.00000   0.00000   0.00000   0.00000   0.00000
  30        3PY         0.00000   0.00000   0.00000   0.00000  -0.00001
  31        3PZ         0.00000  -0.00000  -0.00000   0.00000   0.00000
  32        4S          0.00000   0.00001   0.00003  -0.00000  -0.00007
  33        4PX         0.00001   0.00001   0.00004  -0.00000  -0.00004
  34        4PY         0.00006   0.00004   0.00010   0.00000  -0.00037
  35        4PZ        -0.00000  -0.00000  -0.00000   0.00001   0.00000
  36 4   Cl 1S          0.00000   0.00000   0.00000   0.00000   0.00000
  37        2S          0.00000   0.00000   0.00000   0.00000  -0.00000
  38        2PX         0.00000   0.00000   0.00000   0.00000  -0.00000
  39        2PY         0.00000   0.00000   0.00000   0.00000   0.00000
  40        2PZ         0.00000   0.00000   0.00000   0.00000   0.00000
  41        3S         -0.00000   0.00000  -0.00000   0.00000   0.00000
  42        3PX         0.00000   0.00000   0.00000   0.00000   0.00000
  43        3PY         0.00000   0.00000   0.00000   0.00000  -0.00001
  44        3PZ         0.00000  -0.00000  -0.00000   0.00000   0.00000
  45        4S          0.00000   0.00001   0.00003  -0.00000  -0.00007
  46        4PX         0.00001   0.00001   0.00004  -0.00000  -0.00004
  47        4PY         0.00006   0.00004   0.00010   0.00000  -0.00037
  48        4PZ        -0.00000  -0.00000  -0.00000   0.00001   0.00000
                          16        17        18        19        20
  16        3PX         0.77953
  17        3PY         0.00000   0.58678
  18        3PZ         0.00000  -0.00000   0.67302
  19        4S          0.00000   0.00000   0.00000   0.68891
  20        4PX         0.38505   0.00000   0.00000   0.00000   0.50966
  21        4PY         0.00000   0.24198  -0.00000   0.00000   0.00000
  22        4PZ         0.00000  -0.00000   0.33010   0.00000   0.00000
  23 3   Cl 1S         -0.00000  -0.00000   0.00000  -0.00000  -0.00000
  24        2S          0.00000   0.00000  -0.00000   0.00000   0.00003
  25        2PX         0.00000   0.00000   0.00000   0.00001   0.00001
  26        2PY         0.00000   0.00000   0.00000   0.00003   0.00004
  27        2PZ        -0.00000  -0.00000   0.00000   0.00000  -0.00000
  28        3S         -0.00000  -0.00000  -0.00000  -0.00007  -0.00016
  29        3PX        -0.00001  -0.00002  -0.00000  -0.00031  -0.00028
  30        3PY        -0.00003  -0.00007  -0.00000  -0.00169  -0.00175
  31        3PZ         0.00000   0.00000  -0.00000  -0.00000   0.00000
  32        4S         -0.00069  -0.00131   0.00000   0.00185  -0.00384
  33        4PX        -0.00040  -0.00192   0.00000  -0.00046  -0.00116
  34        4PY        -0.00196  -0.00444  -0.00000  -0.00814  -0.00951
  35        4PZ         0.00000   0.00000  -0.00037  -0.00000  -0.00000
  36 4   Cl 1S         -0.00000  -0.00000   0.00000  -0.00000  -0.00000
  37        2S          0.00000   0.00000   0.00000   0.00000   0.00003
  38        2PX         0.00000   0.00000  -0.00000   0.00001   0.00001
  39        2PY         0.00000   0.00000  -0.00000   0.00003   0.00004
  40        2PZ         0.00000   0.00000   0.00000  -0.00000   0.00000
  41        3S         -0.00000  -0.00000  -0.00000  -0.00007  -0.00016
  42        3PX        -0.00001  -0.00002  -0.00000  -0.00031  -0.00028
  43        3PY        -0.00003  -0.00007  -0.00000  -0.00169  -0.00175
  44        3PZ         0.00000   0.00000  -0.00000   0.00000  -0.00000
  45        4S         -0.00069  -0.00131   0.00000   0.00185  -0.00384
  46        4PX        -0.00040  -0.00192   0.00000  -0.00046  -0.00116
  47        4PY        -0.00196  -0.00444  -0.00000  -0.00814  -0.00951
  48        4PZ         0.00000   0.00000  -0.00037  -0.00000   0.00000
                          21        22        23        24        25
  21        4PY         0.29895
  22        4PZ        -0.00000   0.43640
  23 3   Cl 1S         -0.00000  -0.00000   2.14431
  24        2S          0.00004   0.00000  -0.14900   2.39468
  25        2PX         0.00004  -0.00000   0.00000   0.00000   2.02799
  26        2PY         0.00011   0.00000   0.00000   0.00000   0.00000
  27        2PZ         0.00000   0.00001   0.00000   0.00000   0.00000
  28        3S         -0.00025  -0.00000  -0.00166  -0.12772   0.00000
  29        3PX        -0.00170   0.00000   0.00000   0.00000  -0.04096
  30        3PY        -0.00498  -0.00000   0.00000   0.00000  -0.00000
  31        3PZ        -0.00000  -0.00037   0.00000   0.00000  -0.00000
  32        4S         -0.00476   0.00000   0.00556  -0.17031   0.00000
  33        4PX        -0.00860  -0.00000   0.00000   0.00000  -0.01868
  34        4PY        -0.02261  -0.00000   0.00000   0.00000  -0.00000
  35        4PZ        -0.00000  -0.00268   0.00000   0.00000  -0.00000
  36 4   Cl 1S         -0.00000  -0.00000   0.00000   0.00000   0.00000
  37        2S          0.00004  -0.00000   0.00000   0.00000   0.00000
  38        2PX         0.00004   0.00000   0.00000   0.00000   0.00000
  39        2PY         0.00011  -0.00000   0.00000   0.00000   0.00000
  40        2PZ        -0.00000   0.00001   0.00000   0.00000   0.00000
  41        3S         -0.00025   0.00000   0.00000  -0.00000   0.00000
  42        3PX        -0.00170  -0.00000  -0.00000   0.00000   0.00000
  43        3PY        -0.00498   0.00000  -0.00000  -0.00000  -0.00000
  44        3PZ         0.00000  -0.00037   0.00000   0.00000  -0.00000
  45        4S         -0.00476   0.00000  -0.00000   0.00000   0.00004
  46        4PX        -0.00860   0.00000  -0.00000   0.00007   0.00020
  47        4PY        -0.02261  -0.00000  -0.00000  -0.00000   0.00000
  48        4PZ        -0.00000  -0.00268  -0.00000  -0.00000  -0.00000
                          26        27        28        29        30
  26        2PY         2.04836
  27        2PZ         0.00000   2.03784
  28        3S          0.00000   0.00000   0.76385
  29        3PX        -0.00000  -0.00000   0.00000   0.63497
  30        3PY        -0.05565  -0.00000   0.00000   0.00000   0.73134
  31        3PZ        -0.00000  -0.04774   0.00000   0.00000   0.00000
  32        4S          0.00000   0.00000   0.52271   0.00000   0.00000
  33        4PX        -0.00000  -0.00000   0.00000   0.27775   0.00000
  34        4PY        -0.02179  -0.00000   0.00000   0.00000   0.34928
  35        4PZ        -0.00000  -0.02082   0.00000   0.00000   0.00000
  36 4   Cl 1S          0.00000   0.00000   0.00000  -0.00000  -0.00000
  37        2S          0.00000   0.00000  -0.00000   0.00000  -0.00000
  38        2PX         0.00000   0.00000   0.00000   0.00000  -0.00000
  39        2PY         0.00000   0.00000   0.00000   0.00000   0.00000
  40        2PZ         0.00000   0.00000   0.00000   0.00000   0.00000
  41        3S          0.00000   0.00000   0.00000  -0.00001  -0.00000
  42        3PX         0.00000   0.00000  -0.00001  -0.00013  -0.00000
  43        3PY         0.00000   0.00000   0.00000   0.00000  -0.00000
  44        3PZ         0.00000   0.00000  -0.00000  -0.00000  -0.00000
  45        4S          0.00000  -0.00000  -0.00007  -0.00201  -0.00000
  46        4PX         0.00000   0.00000  -0.00042  -0.00872  -0.00000
  47        4PY         0.00000   0.00000   0.00000  -0.00000   0.00001
  48        4PZ         0.00000   0.00001   0.00000   0.00000  -0.00000
                          31        32        33        34        35
  31        3PZ         0.67302
  32        4S          0.00000   0.68891
  33        4PX         0.00000   0.00000   0.35162
  34        4PY         0.00000   0.00000   0.00000   0.45698
  35        4PZ         0.33010   0.00000   0.00000   0.00000   0.43640
  36 4   Cl 1S          0.00000  -0.00000  -0.00000  -0.00000  -0.00000
  37        2S          0.00000   0.00000   0.00007  -0.00000  -0.00000
  38        2PX        -0.00000   0.00004   0.00020   0.00000  -0.00000
  39        2PY         0.00000   0.00000   0.00000   0.00000   0.00000
  40        2PZ         0.00000  -0.00000   0.00000   0.00000   0.00001
  41        3S          0.00000  -0.00007  -0.00042   0.00000   0.00000
  42        3PX         0.00000  -0.00201  -0.00872  -0.00000   0.00000
  43        3PY        -0.00000  -0.00000  -0.00000   0.00001  -0.00000
  44        3PZ        -0.00000   0.00000   0.00000  -0.00000  -0.00037
  45        4S          0.00000   0.00185  -0.00860  -0.00000  -0.00000
  46        4PX         0.00000  -0.00860  -0.04239  -0.00000   0.00000
  47        4PY        -0.00000   0.00000   0.00000   0.00050  -0.00000
  48        4PZ        -0.00037   0.00000  -0.00000  -0.00000  -0.00268
                          36        37        38        39        40
  36 4   Cl 1S          2.14431
  37        2S         -0.14900   2.39468
  38        2PX         0.00000   0.00000   2.02799
  39        2PY         0.00000   0.00000   0.00000   2.04836
  40        2PZ         0.00000   0.00000  -0.00000   0.00000   2.03784
  41        3S         -0.00166  -0.12772   0.00000   0.00000   0.00000
  42        3PX         0.00000   0.00000  -0.04096  -0.00000   0.00000
  43        3PY         0.00000   0.00000  -0.00000  -0.05565  -0.00000
  44        3PZ         0.00000   0.00000   0.00000  -0.00000  -0.04774
  45        4S          0.00556  -0.17031   0.00000   0.00000   0.00000
  46        4PX         0.00000   0.00000  -0.01868  -0.00000   0.00000
  47        4PY         0.00000   0.00000  -0.00000  -0.02179  -0.00000
  48        4PZ         0.00000   0.00000   0.00000  -0.00000  -0.02082
                          41        42        43        44        45
  41        3S          0.76385
  42        3PX         0.00000   0.63497
  43        3PY         0.00000   0.00000   0.73134
  44        3PZ         0.00000  -0.00000   0.00000   0.67302
  45        4S          0.52271   0.00000   0.00000   0.00000   0.68891
  46        4PX         0.00000   0.27775   0.00000  -0.00000   0.00000
  47        4PY         0.00000   0.00000   0.34928   0.00000   0.00000
  48        4PZ         0.00000  -0.00000   0.00000   0.33010   0.00000
                          46        47        48
  46        4PX         0.35162
  47        4PY         0.00000   0.45698
  48        4PZ        -0.00000   0.00000   0.43640
     Gross orbital populations:
                           1
   1 1   B  1S          1.98883
   2        2S          0.38514
   3        2PX         0.42524
   4        2PY         0.42524
   5        2PZ         0.12537
   6        3S          0.73695
   7        3PX         0.18891
   8        3PY         0.18891
   9        3PZ         0.22407
  10 2   Cl 1S          1.99865
  11        2S          1.96051
  12        2PX         1.97195
  13        2PY         1.96442
  14        2PZ         1.96836
  15        3S          1.13528
  16        3PX         1.11026
  17        3PY         0.89364
  18        3PZ         0.98951
  19        4S          0.88032
  20        4PX         0.86477
  21        4PY         0.55717
  22        4PZ         0.80894
  23 3   Cl 1S          1.99865
  24        2S          1.96051
  25        2PX         1.96630
  26        2PY         1.97006
  27        2PZ         1.96836
  28        3S          1.13528
  29        3PX         0.94779
  30        3PY         1.05611
  31        3PZ         0.98951
  32        4S          0.88032
  33        4PX         0.63407
  34        4PY         0.78787
  35        4PZ         0.80894
  36 4   Cl 1S          1.99865
  37        2S          1.96051
  38        2PX         1.96630
  39        2PY         1.97006
  40        2PZ         1.96836
  41        3S          1.13528
  42        3PX         0.94779
  43        3PY         1.05611
  44        3PZ         0.98951
  45        4S          0.88032
  46        4PX         0.63407
  47        4PY         0.78787
  48        4PZ         0.80894
          Condensed to atoms (all electrons):
               1          2          3          4
     1  B    4.038949   0.216571   0.216571   0.216571
     2  Cl   0.216571  17.052411  -0.082601  -0.082601
     3  Cl   0.216571  -0.082601  17.052411  -0.082601
     4  Cl   0.216571  -0.082601  -0.082601  17.052411
 Mulliken charges:
               1
     1  B    0.311337
     2  Cl  -0.103779
     3  Cl  -0.103779
     4  Cl  -0.103779
 Sum of Mulliken charges =  -0.00000
 Mulliken charges with hydrogens summed into heavy atoms:
               1
     1  B    0.311337
     2  Cl  -0.103779
     3  Cl  -0.103779
     4  Cl  -0.103779
 Electronic spatial extent (au):  <R**2>=            702.0948
 Charge=             -0.0000 electrons
 Dipole moment (field-independent basis, Debye):
    X=              0.0000    Y=              0.0000    Z=              2.0387  Tot=              2.0387
 Quadrupole moment (field-independent basis, Debye-Ang):
   XX=            -49.1449   YY=            -49.1449   ZZ=            -42.0723
   XY=              0.0000   XZ=             -0.0000   YZ=             -0.0000
 Traceless Quadrupole moment (field-independent basis, Debye-Ang):
   XX=             -2.3575   YY=             -2.3575   ZZ=              4.7150
   XY=              0.0000   XZ=             -0.0000   YZ=             -0.0000
 Octapole moment (field-independent basis, Debye-Ang**2):
  XXX=              0.0000  YYY=             -1.5895  ZZZ=             -0.4710  XYY=             -0.0000
  XXY=              1.5895  XXZ=             -3.3161  XZZ=              0.0000  YZZ=              0.0000
  YYZ=             -3.3161  XYZ=              0.0000
 Hexadecapole moment (field-independent basis, Debye-Ang**3):
 XXXX=           -431.1304 YYYY=           -431.1304 ZZZZ=            -57.2831 XXXY=              0.0000
 XXXZ=             -0.0000 YYYX=              0.0000 YYYZ=             -3.5427 ZZZX=             -0.0000
 ZZZY=             -0.0000 XXYY=           -143.7101 XXZZ=            -81.0490 YYZZ=            -81.0490
 XXYZ=              3.5427 YYXZ=             -0.0000 ZZXY=              0.0000
 N-N= 2.176432664787D+02 E-N=-3.758929535552D+03  KE= 1.395074949139D+03
 Symmetry A'   KE= 8.912438796627D+02
 Symmetry A"   KE= 5.038310694763D+02
 Orbital energies and kinetic energies (alpha):
                                 1                 2
   1         (E)--O         -104.148350        136.078816
   2         (E)--O         -104.148350        136.078816
   3         (A1)--O        -104.148061        136.085991
   4         (E)--O          -10.541706         22.346465
   5         (E)--O          -10.541706         22.346465
   6         (A1)--O         -10.540786         22.369494
   7         (E)--O           -8.004471         20.331113
   8         (E)--O           -8.004471         20.331113
   9         (A1)--O          -8.004271         20.341781
  10         (E)--O           -8.000884         20.364494
  11         (E)--O           -8.000884         20.364494
  12         (A1)--O          -8.000739         20.371499
  13         (A2)--O          -8.000648         20.362440
  14         (E)--O           -8.000388         20.375164
  15         (E)--O           -8.000388         20.375164
  16         (A1)--O          -7.825627         10.824924
  17         (A1)--O          -1.174137          2.589141
  18         (E)--O           -1.118315          2.969986
  19         (E)--O           -1.118315          2.969986
  20         (A1)--O          -0.705123          2.097805
  21         (E)--O           -0.587897          1.963899
  22         (E)--O           -0.587897          1.963899
  23         (A1)--O          -0.549981          1.870497
  24         (E)--O           -0.499625          2.229730
  25         (E)--O           -0.499625          2.229730
  26         (E)--O           -0.479660          2.411141
  27         (E)--O           -0.479660          2.411141
  28         (A2)--O          -0.472330          2.482286
  29         (A1)--V          -0.050918          1.437737
  30         (A1)--V           0.163845          2.191970
  31         (E)--V            0.167001          1.626169
  32         (E)--V            0.167001          1.626169
  33         (E)--V            0.560868          1.874477
  34         (E)--V            0.560868          1.874477
  35         (A1)--V           0.566239          1.776157
  36         (A1)--V           0.640489          2.835314
  37         (E)--V            0.728203          3.118807
  38         (E)--V            0.728203          3.118807
  39         (E)--V            0.749556          3.485793
  40         (E)--V            0.749556          3.485793
  41         (A1)--V           0.752559          3.494051
  42         (A1)--V           0.810621          3.407928
  43         (E)--V            0.845331          3.428981
  44         (E)--V            0.845331          3.428981
  45         (A2)--V           0.890004          3.511641
  46         (E)--V            1.022457          3.698253
  47         (E)--V            1.022457          3.698253
  48         (A1)--V           1.207326          2.046887
 Total kinetic energy from orbitals= 1.395074949139D+03
 1\1\GINC-IISERK51\SP\RHF\3-21G\B1Cl3\GAUSSIAN\16-Jun-2025\0\\# hf/3-21
 g pop=full geom=connectivity\\BCl3 pyramid opt\\0,1\B,0,0.,0.,0.\Cl,0,
 -0.384703,1.56782,-1.022489\Cl,0,-0.44788,-1.552027,-1.02086\Cl,0,-1.0
 28273,0.021663,1.610505\\Version=EM64L-G16RevB.01\State=1-A1\HF=-1396.
 4683211\RMSD=1.475e-09\Dipole=0.7810817,-0.0157221,0.1816837\Quadrupol
 e=3.2337032,-1.7507382,-1.4829651,-0.1003704,1.1598769,-0.0233467\PG=C
 03V [C3(B1),3SGV(Cl1)]\\@


 I FIND THAT THE THREE TRULY GREAT TIMES FOR THINKING THOUGHTS
 ARE WHEN I AM STANDING IN THE SHOWER, SITTING ON THE JOHN, OR WALKING.

                                    -- COLIN FLETCHER
 Job cpu time:       0 days  0 hours  0 minutes  0.4 seconds.
 Elapsed time:       0 days  0 hours  0 minutes  0.4 seconds.
 File lengths (MBytes):  RWF=      6 Int=      0 D2E=      0 Chk=      1 Scr=      1
 Normal termination of Gaussian 16 at Mon Jun 16 21:19:32 2025.
