 Entering Gaussian System, Link 0=g16
 Input=/home/gaussian/Documents/program files/Aromaticity/AM1 HF3-21G*/cycloheptatrienyl_cation/opt freq/cycloheptatrienyl_cation_isomer_opt.com
 Output=/home/gaussian/Documents/program files/Aromaticity/AM1 HF3-21G*/cycloheptatrienyl_cation/opt freq/cycloheptatrienyl_cation_isomer_opt.log
 Initial command:
 /usr/local/g16/l1.exe "/home/gaussian/tmp/Gau-143300.inp" -scrdir="/home/gaussian/tmp/"
 Entering Link 1 = /usr/local/g16/l1.exe PID=    143303.
  
 Copyright (c) 1988-2017, Gaussian, Inc.  All Rights Reserved.
  
 This is part of the Gaussian(R) 16 program.  It is based on
 the Gaussian(R) 09 system (copyright 2009, Gaussian, Inc.),
 the Gaussian(R) 03 system (copyright 2003, Gaussian, Inc.),
 the Gaussian(R) 98 system (copyright 1998, Gaussian, Inc.),
 the Gaussian(R) 94 system (copyright 1995, Gaussian, Inc.),
 the Gaussian 92(TM) system (copyright 1992, Gaussian, Inc.),
 the Gaussian 90(TM) system (copyright 1990, Gaussian, Inc.),
 the Gaussian 88(TM) system (copyright 1988, Gaussian, Inc.),
 the Gaussian 86(TM) system (copyright 1986, Carnegie Mellon
 University), and the Gaussian 82(TM) system (copyright 1983,
 Carnegie Mellon University). Gaussian is a federally registered
 trademark of Gaussian, Inc.
  
 This software contains proprietary and confidential information,
 including trade secrets, belonging to Gaussian, Inc.
  
 This software is provided under written license and may be
 used, copied, transmitted, or stored only in accord with that
 written license.
  
 The following legend is applicable only to US Government
 contracts under FAR:
  
                    RESTRICTED RIGHTS LEGEND
  
 Use, reproduction and disclosure by the US Government is
 subject to restrictions as set forth in subparagraphs (a)
 and (c) of the Commercial Computer Software - Restricted
 Rights clause in FAR 52.227-19.
  
 Gaussian, Inc.
 340 Quinnipiac St., Bldg. 40, Wallingford CT 06492
  
  
 ---------------------------------------------------------------
 Warning -- This program may not be used in any manner that
 competes with the business of Gaussian, Inc. or will provide
 assistance to any competitor of Gaussian, Inc.  The licensee
 of this program is prohibited from giving any competitor of
 Gaussian, Inc. access to this program.  By using this program,
 the user acknowledges that Gaussian, Inc. is engaged in the
 business of creating and licensing software in the field of
 computational chemistry and represents and warrants to the
 licensee that it is not a competitor of Gaussian, Inc. and that
 it will not use this program in any manner prohibited above.
 ---------------------------------------------------------------
  

 Cite this work as:
 Gaussian 16, Revision B.01,
 M. J. Frisch, G. W. Trucks, H. B. Schlegel, G. E. Scuseria, 
 M. A. Robb, J. R. Cheeseman, G. Scalmani, V. Barone, 
 G. A. Petersson, H. Nakatsuji, X. Li, M. Caricato, A. V. Marenich, 
 J. Bloino, B. G. Janesko, R. Gomperts, B. Mennucci, H. P. Hratchian, 
 J. V. Ortiz, A. F. Izmaylov, J. L. Sonnenberg, D. Williams-Young, 
 F. Ding, F. Lipparini, F. Egidi, J. Goings, B. Peng, A. Petrone, 
 T. Henderson, D. Ranasinghe, V. G. Zakrzewski, J. Gao, N. Rega, 
 G. Zheng, W. Liang, M. Hada, M. Ehara, K. Toyota, R. Fukuda, 
 J. Hasegawa, M. Ishida, T. Nakajima, Y. Honda, O. Kitao, H. Nakai, 
 T. Vreven, K. Throssell, J. A. Montgomery, Jr., J. E. Peralta, 
 F. Ogliaro, M. J. Bearpark, J. J. Heyd, E. N. Brothers, K. N. Kudin, 
 V. N. Staroverov, T. A. Keith, R. Kobayashi, J. Normand, 
 K. Raghavachari, A. P. Rendell, J. C. Burant, S. S. Iyengar, 
 J. Tomasi, M. Cossi, J. M. Millam, M. Klene, C. Adamo, R. Cammi, 
 J. W. Ochterski, R. L. Martin, K. Morokuma, O. Farkas, 
 J. B. Foresman, and D. J. Fox, Gaussian, Inc., Wallingford CT, 2016.
 
 ******************************************
 Gaussian 16:  EM64L-G16RevB.01 20-Dec-2017
                12-Jun-2025 
 ******************************************
 %chk=cycloheptatrienyl_cation_isomer_opt.chk
 -----------------------------------------
 # opt freq am1 pop=full geom=connectivity
 -----------------------------------------
 1/18=20,19=15,26=1,38=1,57=2/1,3;
 2/9=110,12=2,17=6,18=5,40=1/2;
 3/5=2,25=1,41=700000,71=1/1,2,3;
 4/35=1/1;
 5/5=2,35=1,38=5/2;
 6/7=3,28=1/1;
 7//1,2,3,16;
 1/18=20,19=15,26=1/3(2);
 2/9=110/2;
 99//99;
 2/9=110/2;
 3/5=2,25=1,41=700000,71=1,135=20/1,2,3;
 4/5=5,16=3,35=1/1;
 5/5=2,35=1,38=5/2;
 7//1,2,3,16;
 1/18=20,19=15,26=1/3(-5);
 2/9=110/2;
 6/7=3,19=2,28=1/1;
 99/9=1/99;
 ------------
 Optimisation
 ------------
 Symbolic Z-matrix:
 Charge =  1 Multiplicity = 1
 C                     0.55023   1.32935  -0.08159 
 C                    -0.79863   1.55631  -0.20048 
 C                    -1.79906   0.62843   0.06052 
 C                     1.22014   0.06058  -0.05457 
 C                    -1.71354  -0.75069   0.38923 
 C                     0.53535  -1.13771  -0.67934 
 C                    -0.67568  -1.55343   0.109 
 H                     1.17445   2.19835   0.02861 
 H                    -1.11458   2.57242  -0.3262 
 H                    -2.79007   1.04204   0.11826 
 H                    -2.57908  -1.17375   0.8597 
 H                    -0.7375   -2.58239   0.40956 
 C                     2.4539    0.0039    0.45752 
 H                     2.96509   0.88406   0.79899 
 H                     2.98524  -0.92295   0.55146 
 H                     0.2286   -0.87785  -1.69032 
 H                     1.23152  -1.96042  -0.75184 
 

 GradGradGradGradGradGradGradGradGradGradGradGradGradGradGradGradGradGrad
 Berny optimization.
 Initialization pass.
                           ----------------------------
                           !    Initial Parameters    !
                           ! (Angstroms and Degrees)  !
 --------------------------                            --------------------------
 ! Name  Definition              Value          Derivative Info.                !
 --------------------------------------------------------------------------------
 ! R1    R(1,2)                  1.373          estimate D2E/DX2                !
 ! R2    R(1,4)                  1.435          estimate D2E/DX2                !
 ! R3    R(1,8)                  1.0756         estimate D2E/DX2                !
 ! R4    R(2,3)                  1.3892         estimate D2E/DX2                !
 ! R5    R(2,9)                  1.0715         estimate D2E/DX2                !
 ! R6    R(3,5)                  1.4203         estimate D2E/DX2                !
 ! R7    R(3,10)                 1.0754         estimate D2E/DX2                !
 ! R8    R(4,6)                  1.515          estimate D2E/DX2                !
 ! R9    R(4,13)                 1.337          estimate D2E/DX2                !
 ! R10   R(5,7)                  1.3417         estimate D2E/DX2                !
 ! R11   R(5,11)                 1.0721         estimate D2E/DX2                !
 ! R12   R(6,7)                  1.5036         estimate D2E/DX2                !
 ! R13   R(6,16)                 1.088          estimate D2E/DX2                !
 ! R14   R(6,17)                 1.0802         estimate D2E/DX2                !
 ! R15   R(7,12)                 1.0737         estimate D2E/DX2                !
 ! R16   R(13,14)                1.0736         estimate D2E/DX2                !
 ! R17   R(13,15)                1.0725         estimate D2E/DX2                !
 ! A1    A(2,1,4)              127.3308         estimate D2E/DX2                !
 ! A2    A(2,1,8)              116.4529         estimate D2E/DX2                !
 ! A3    A(4,1,8)              116.197          estimate D2E/DX2                !
 ! A4    A(1,2,3)              125.5076         estimate D2E/DX2                !
 ! A5    A(1,2,9)              117.1687         estimate D2E/DX2                !
 ! A6    A(3,2,9)              116.3004         estimate D2E/DX2                !
 ! A7    A(2,3,5)              130.4396         estimate D2E/DX2                !
 ! A8    A(2,3,10)             114.6347         estimate D2E/DX2                !
 ! A9    A(5,3,10)             114.6143         estimate D2E/DX2                !
 ! A10   A(1,4,6)              118.721          estimate D2E/DX2                !
 ! A11   A(1,4,13)             118.39           estimate D2E/DX2                !
 ! A12   A(6,4,13)             122.7874         estimate D2E/DX2                !
 ! A13   A(3,5,7)              125.3943         estimate D2E/DX2                !
 ! A14   A(3,5,11)             115.8549         estimate D2E/DX2                !
 ! A15   A(7,5,11)             118.6887         estimate D2E/DX2                !
 ! A16   A(4,6,7)              111.5008         estimate D2E/DX2                !
 ! A17   A(4,6,16)             108.768          estimate D2E/DX2                !
 ! A18   A(4,6,17)             109.8035         estimate D2E/DX2                !
 ! A19   A(7,6,16)             109.0348         estimate D2E/DX2                !
 ! A20   A(7,6,17)             110.1019         estimate D2E/DX2                !
 ! A21   A(16,6,17)            107.5336         estimate D2E/DX2                !
 ! A22   A(5,7,6)              124.5491         estimate D2E/DX2                !
 ! A23   A(5,7,12)             118.0576         estimate D2E/DX2                !
 ! A24   A(6,7,12)             117.2632         estimate D2E/DX2                !
 ! A25   A(4,13,14)            121.7652         estimate D2E/DX2                !
 ! A26   A(4,13,15)            121.8267         estimate D2E/DX2                !
 ! A27   A(14,13,15)           116.4079         estimate D2E/DX2                !
 ! D1    D(4,1,2,3)             19.5155         estimate D2E/DX2                !
 ! D2    D(4,1,2,9)           -172.5278         estimate D2E/DX2                !
 ! D3    D(8,1,2,3)           -158.815          estimate D2E/DX2                !
 ! D4    D(8,1,2,9)              9.1417         estimate D2E/DX2                !
 ! D5    D(2,1,4,6)             23.3021         estimate D2E/DX2                !
 ! D6    D(2,1,4,13)          -160.2585         estimate D2E/DX2                !
 ! D7    D(8,1,4,6)           -158.3637         estimate D2E/DX2                !
 ! D8    D(8,1,4,13)            18.0758         estimate D2E/DX2                !
 ! D9    D(1,2,3,5)             -5.741          estimate D2E/DX2                !
 ! D10   D(1,2,3,10)           167.4113         estimate D2E/DX2                !
 ! D11   D(9,2,3,5)           -173.7906         estimate D2E/DX2                !
 ! D12   D(9,2,3,10)            -0.6384         estimate D2E/DX2                !
 ! D13   D(2,3,5,7)            -22.6959         estimate D2E/DX2                !
 ! D14   D(2,3,5,11)           160.2204         estimate D2E/DX2                !
 ! D15   D(10,3,5,7)           164.1507         estimate D2E/DX2                !
 ! D16   D(10,3,5,11)          -12.933          estimate D2E/DX2                !
 ! D17   D(1,4,6,7)            -68.5941         estimate D2E/DX2                !
 ! D18   D(1,4,6,16)            51.6761         estimate D2E/DX2                !
 ! D19   D(1,4,6,17)           169.0982         estimate D2E/DX2                !
 ! D20   D(13,4,6,7)           115.132          estimate D2E/DX2                !
 ! D21   D(13,4,6,16)         -124.5978         estimate D2E/DX2                !
 ! D22   D(13,4,6,17)           -7.1756         estimate D2E/DX2                !
 ! D23   D(1,4,13,14)           -3.0657         estimate D2E/DX2                !
 ! D24   D(1,4,13,15)          176.7897         estimate D2E/DX2                !
 ! D25   D(6,4,13,14)          173.2199         estimate D2E/DX2                !
 ! D26   D(6,4,13,15)           -6.9248         estimate D2E/DX2                !
 ! D27   D(3,5,7,6)             -4.0213         estimate D2E/DX2                !
 ! D28   D(3,5,7,12)          -179.7532         estimate D2E/DX2                !
 ! D29   D(11,5,7,6)           172.987          estimate D2E/DX2                !
 ! D30   D(11,5,7,12)           -2.7449         estimate D2E/DX2                !
 ! D31   D(4,6,7,5)             56.9818         estimate D2E/DX2                !
 ! D32   D(4,6,7,12)          -127.2554         estimate D2E/DX2                !
 ! D33   D(16,6,7,5)           -63.1314         estimate D2E/DX2                !
 ! D34   D(16,6,7,12)          112.6314         estimate D2E/DX2                !
 ! D35   D(17,6,7,5)           179.1175         estimate D2E/DX2                !
 ! D36   D(17,6,7,12)           -5.1197         estimate D2E/DX2                !
 --------------------------------------------------------------------------------
 Trust Radius=3.00D-01 FncErr=1.00D-07 GrdErr=1.00D-07 EigMax=2.50D+02 EigMin=1.00D-04
 Number of steps in this run=     90 maximum allowed number of steps=    102.
 GradGradGradGradGradGradGradGradGradGradGradGradGradGradGradGradGradGrad

                          Input orientation:                          
 ---------------------------------------------------------------------
 Center     Atomic      Atomic             Coordinates (Angstroms)
 Number     Number       Type             X           Y           Z
 ---------------------------------------------------------------------
      1          6           0        0.550226    1.329347   -0.081587
      2          6           0       -0.798625    1.556307   -0.200479
      3          6           0       -1.799061    0.628433    0.060522
      4          6           0        1.220138    0.060581   -0.054567
      5          6           0       -1.713535   -0.750686    0.389227
      6          6           0        0.535350   -1.137709   -0.679341
      7          6           0       -0.675675   -1.553427    0.109004
      8          1           0        1.174447    2.198345    0.028606
      9          1           0       -1.114580    2.572422   -0.326200
     10          1           0       -2.790065    1.042035    0.118261
     11          1           0       -2.579077   -1.173754    0.859698
     12          1           0       -0.737501   -2.582385    0.409556
     13          6           0        2.453904    0.003904    0.457522
     14          1           0        2.965086    0.884062    0.798985
     15          1           0        2.985241   -0.922949    0.551458
     16          1           0        0.228596   -0.877852   -1.690322
     17          1           0        1.231519   -1.960424   -0.751838
 ---------------------------------------------------------------------
                    Distance matrix (angstroms):
                    1          2          3          4          5
     1  C    0.000000
     2  C    1.372969   0.000000
     3  C    2.455733   1.389224   0.000000
     4  C    1.435019   2.516722   3.074291   0.000000
     5  C    3.110115   2.550888   1.420328   3.075962   0.000000
     6  C    2.538483   3.044096   3.019293   1.514984   2.519744
     7  C    3.138398   3.127514   2.454559   2.495172   1.341667
     8  H    1.075617   2.087512   3.362647   2.139869   4.143341
     9  H    2.092044   1.071505   2.096941   3.440064   3.451613
    10  H    3.358576   2.081323   1.075402   4.132173   2.108599
    11  H    4.116317   3.427421   2.120138   4.097987   1.072144
    12  H    4.147422   4.183856   3.399719   3.321601   2.075615
    13  C    2.381476   3.663586   4.316869   1.337021   4.235755
    14  H    2.608684   3.951754   4.827812   2.109861   4.972906
    15  H    3.376815   4.585822   5.053449   2.109546   4.704731
    16  H    2.750128   3.033141   3.073393   2.130612   2.848257
    17  H    3.425783   4.097911   4.067742   2.137938   3.382135
                    6          7          8          9         10
     6  C    0.000000
     7  C    1.503626   0.000000
     8  H    3.469710   4.183923   0.000000
     9  H    4.075788   4.171890   2.346373   0.000000
    10  H    4.055347   3.347709   4.130671   2.312332   0.000000
    11  H    3.474132   2.081017   5.113776   4.193440   2.346053
    12  H    2.211998   1.073736   5.162949   5.220686   4.175439
    13  C    2.505312   3.512977   2.576150   4.466048   5.356494
    14  H    3.489502   4.435377   2.351002   4.556345   5.797422
    15  H    2.750083   3.741066   3.646207   5.458611   6.115798
    16  H    1.087983   2.124072   3.648607   3.945800   4.008647
    17  H    1.080170   2.131686   4.231750   5.121722   5.093621
                   11         12         13         14         15
    11  H    0.000000
    12  H    2.361836   0.000000
    13  C    5.184546   4.108072   0.000000
    14  H    5.914054   5.086950   1.073584   0.000000
    15  H    5.578490   4.078317   1.072474   1.823997   0.000000
    16  H    3.804364   2.871979   3.216010   4.097483   3.553407
    17  H    4.211477   2.369116   2.610625   3.674426   2.418776
                   16         17
    16  H    0.000000
    17  H    1.748876   0.000000
 Stoichiometry    C8H9(1+)
 Framework group  C1[X(C8H9)]
 Deg. of freedom    45
 Full point group                 C1      NOp   1
 Largest Abelian subgroup         C1      NOp   1
 Largest concise Abelian subgroup C1      NOp   1
                         Standard orientation:                         
 ---------------------------------------------------------------------
 Center     Atomic      Atomic             Coordinates (Angstroms)
 Number     Number       Type             X           Y           Z
 ---------------------------------------------------------------------
      1          6           0       -0.550226    1.329347    0.081587
      2          6           0        0.798624    1.556307    0.200479
      3          6           0        1.799061    0.628434   -0.060522
      4          6           0       -1.220138    0.060581    0.054567
      5          6           0        1.713535   -0.750685   -0.389227
      6          6           0       -0.535350   -1.137709    0.679341
      7          6           0        0.675675   -1.553427   -0.109004
      8          1           0       -1.174448    2.198345   -0.028606
      9          1           0        1.114579    2.572422    0.326200
     10          1           0        2.790065    1.042036   -0.118261
     11          1           0        2.579077   -1.173753   -0.859698
     12          1           0        0.737502   -2.582385   -0.409556
     13          6           0       -2.453904    0.003903   -0.457522
     14          1           0       -2.965086    0.884061   -0.798985
     15          1           0       -2.985241   -0.922950   -0.551458
     16          1           0       -0.228596   -0.877852    1.690322
     17          1           0       -1.231518   -1.960424    0.751838
 ---------------------------------------------------------------------
 Rotational constants (GHZ):           3.3823658           2.1266104           1.4240447
 Standard basis: VSTO-6G (5D, 7F)
 There are    41 symmetry adapted cartesian basis functions of A   symmetry.
 There are    41 symmetry adapted basis functions of A   symmetry.
    41 basis functions,   246 primitive gaussians,    41 cartesian basis functions
    20 alpha electrons       20 beta electrons
       nuclear repulsion energy       193.5279554235 Hartrees.
 Integral buffers will be    131072 words long.
 Regular integral format.
 Two-electron integral symmetry is turned off.
 Do NDO integrals.
 One-electron integrals computed using PRISM.
 NBasis=    41 RedAO= F EigKep=  0.00D+00  NBF=    41
 NBsUse=    41 1.00D-04 EigRej=  0.00D+00 NBFU=    41
 Simple Huckel Guess.
 Keep J ints in memory in canonical form, NReq=863514.
 Overlap will be assumed to be unity.
 Requested convergence on RMS density matrix=1.00D-08 within 128 cycles.
 Requested convergence on MAX density matrix=1.00D-06.
 Requested convergence on             energy=1.00D-06.
 No special actions if energy rises.
 SCF Done:  E(RAM1) =  0.372964588431     A.U. after   14 cycles
            NFock= 13  Conv=0.82D-08     -V/T= 1.0059

 **********************************************************************

            Population analysis using the SCF Density.

 **********************************************************************

 Orbital symmetries:
       Occupied  (A) (A) (A) (A) (A) (A) (A) (A) (A) (A) (A) (A)
                 (A) (A) (A) (A) (A) (A) (A) (A)
       Virtual   (A) (A) (A) (A) (A) (A) (A) (A) (A) (A) (A) (A)
                 (A) (A) (A) (A) (A) (A) (A) (A) (A)
 The electronic state is 1-A.
 Alpha  occ. eigenvalues --   -1.63319  -1.46685  -1.42037  -1.24240  -1.15758
 Alpha  occ. eigenvalues --   -1.04470  -0.89424  -0.86295  -0.82794  -0.76048
 Alpha  occ. eigenvalues --   -0.74395  -0.71824  -0.69895  -0.67797  -0.64819
 Alpha  occ. eigenvalues --   -0.64131  -0.62510  -0.61573  -0.57678  -0.52768
 Alpha virt. eigenvalues --   -0.25373  -0.16757  -0.12851  -0.10193  -0.05019
 Alpha virt. eigenvalues --   -0.04539  -0.04133  -0.03762  -0.03272  -0.02543
 Alpha virt. eigenvalues --   -0.02043  -0.00809  -0.00009   0.00384   0.01013
 Alpha virt. eigenvalues --    0.01304   0.01715   0.01965   0.02144   0.02581
 Alpha virt. eigenvalues --    0.02966
     Molecular Orbital Coefficients:
                           1         2         3         4         5
                           O         O         O         O         O
     Eigenvalues --    -1.63319  -1.46685  -1.42037  -1.24240  -1.15758
   1 1   C  1S          0.37244   0.19500   0.35934  -0.22667   0.39369
   2        1PX         0.04222  -0.12274   0.12801  -0.12247  -0.06778
   3        1PY        -0.07869  -0.07955   0.05290  -0.03707   0.03528
   4        1PZ         0.00067  -0.00764   0.00209  -0.03518  -0.01428
   5 2   C  1S          0.34062  -0.15126   0.47993  -0.16894  -0.12297
   6        1PX        -0.03760  -0.11221  -0.04721   0.15764  -0.27193
   7        1PY        -0.08583   0.05690  -0.03036  -0.04358   0.06375
   8        1PZ        -0.02473   0.01857  -0.02748  -0.01466   0.00914
   9 3   C  1S          0.32491  -0.38707   0.21695   0.28546  -0.34542
  10        1PX        -0.08340   0.02373  -0.07715   0.07625  -0.00180
  11        1PY        -0.02433   0.06605   0.14934  -0.10952  -0.15596
  12        1PZ         0.00017   0.01506   0.02454  -0.04029  -0.03537
  13 4   C  1S          0.40294   0.44934  -0.06167   0.10373  -0.01458
  14        1PX         0.03938  -0.10186   0.02305  -0.26384   0.02964
  15        1PY         0.01652   0.02893   0.15538   0.03076   0.25325
  16        1PZ         0.00201  -0.03120  -0.01853  -0.12065  -0.05714
  17 5   C  1S          0.31170  -0.41371  -0.22046   0.28513   0.26846
  18        1PX        -0.07443   0.03457   0.08884   0.07896  -0.07077
  19        1PY         0.03466  -0.04793   0.12680   0.10583  -0.20118
  20        1PZ         0.03836  -0.03312  -0.01934  -0.00672  -0.02157
  21 6   C  1S          0.32301   0.11856  -0.35905  -0.36584  -0.37234
  22        1PX         0.02490  -0.10522  -0.05727  -0.07162   0.08375
  23        1PY         0.05885   0.06692   0.03532   0.02752   0.00519
  24        1PZ        -0.05797  -0.01253   0.05167  -0.00404  -0.03044
  25 7   C  1S          0.31028  -0.22525  -0.43368  -0.15781   0.22525
  26        1PX        -0.00256  -0.11690   0.01292   0.15945   0.21655
  27        1PY         0.08607  -0.05947  -0.03800   0.03384   0.01290
  28        1PZ         0.01785   0.02682  -0.02492  -0.08227  -0.10802
  29 8   H  1S          0.10890   0.08086   0.12408  -0.06336   0.19069
  30 9   H  1S          0.09287  -0.04806   0.16415  -0.06313  -0.05773
  31 10  H  1S          0.09013  -0.12878   0.07657   0.12594  -0.16544
  32 11  H  1S          0.08376  -0.13283  -0.07142   0.12259   0.12010
  33 12  H  1S          0.08462  -0.06826  -0.14837  -0.06250   0.10281
  34 13  C  1S          0.21501   0.39755  -0.06406   0.48367  -0.05106
  35        1PX         0.09008   0.11705  -0.01589   0.03447   0.00418
  36        1PY         0.00771   0.01468   0.03451   0.01559   0.08060
  37        1PZ         0.03482   0.05033  -0.01283   0.01047  -0.01892
  38 14  H  1S          0.06587   0.12973  -0.00586   0.18695   0.01618
  39 15  H  1S          0.06297   0.12261  -0.03549   0.17454  -0.05676
  40 16  H  1S          0.11358   0.03245  -0.11538  -0.15009  -0.14708
  41 17  H  1S          0.09921   0.05558  -0.13304  -0.12545  -0.17781
                           6         7         8         9        10
                           O         O         O         O         O
     Eigenvalues --    -1.04470  -0.89424  -0.86295  -0.82794  -0.76048
   1 1   C  1S         -0.13746   0.13434  -0.19695  -0.01546  -0.06829
   2        1PX         0.18387   0.12792   0.29877  -0.13975  -0.22974
   3        1PY         0.19627   0.30558  -0.09611   0.17539  -0.08612
   4        1PZ        -0.00413   0.03454   0.06348   0.00343   0.08522
   5 2   C  1S          0.33442  -0.01946   0.23137   0.05667   0.05819
   6        1PX         0.03369  -0.28858  -0.07853   0.10589   0.27172
   7        1PY         0.11309   0.13850   0.03607   0.34017   0.11013
   8        1PZ         0.00491   0.01762   0.03018   0.03406   0.11295
   9 3   C  1S         -0.15138  -0.08463  -0.24403  -0.02708  -0.07411
  10        1PX        -0.11309   0.10111  -0.22310   0.31004  -0.02805
  11        1PY         0.21667  -0.27283  -0.04058   0.16697   0.18352
  12        1PZ         0.06330  -0.08471   0.01163  -0.03332   0.13591
  13 4   C  1S         -0.26954  -0.28943   0.18532   0.12716  -0.02562
  14        1PX        -0.20240  -0.04028   0.00838  -0.16315   0.02322
  15        1PY        -0.08884  -0.11736  -0.28187  -0.07980   0.22385
  16        1PZ        -0.10370   0.07932   0.06767   0.02076   0.17623
  17 5   C  1S         -0.14809   0.21312   0.20704   0.05812   0.06569
  18        1PX        -0.13413   0.20037  -0.04372   0.26905  -0.05290
  19        1PY        -0.20959   0.12747  -0.14506  -0.19919  -0.25163
  20        1PZ         0.00226  -0.02684  -0.06476  -0.15630   0.06831
  21 6   C  1S         -0.07527   0.23082  -0.03736   0.01862   0.07572
  22        1PX         0.09362  -0.07594  -0.20917  -0.21836   0.09703
  23        1PY        -0.16668  -0.09678   0.25138  -0.06618   0.14241
  24        1PZ        -0.04234   0.18868  -0.03079   0.01197   0.38634
  25 7   C  1S          0.31847  -0.24856  -0.16404  -0.00673  -0.07608
  26        1PX         0.00064  -0.01113   0.21480   0.07328   0.25899
  27        1PY        -0.10912   0.07477   0.18606  -0.25210   0.17371
  28        1PZ        -0.01923   0.08436  -0.12786  -0.11254   0.08217
  29 8   H  1S         -0.02435   0.16594  -0.25730   0.13158   0.01400
  30 9   H  1S          0.19714   0.01933   0.11297   0.25189   0.16473
  31 10  H  1S         -0.07487  -0.04053  -0.24823   0.21605  -0.01093
  32 11  H  1S         -0.07435   0.16623   0.12198   0.25465   0.04995
  33 12  H  1S          0.18908  -0.16733  -0.15808   0.17211  -0.16203
  34 13  C  1S          0.36662   0.15258  -0.03777  -0.12772   0.02217
  35        1PX        -0.12974  -0.22740   0.10996   0.22269  -0.13451
  36        1PY        -0.03340  -0.06293  -0.17879  -0.03450   0.26879
  37        1PZ        -0.06029  -0.05923   0.08082   0.13146  -0.00307
  38 14  H  1S          0.18399   0.12434  -0.16267  -0.17255   0.20958
  39 15  H  1S          0.20671   0.17752   0.03333  -0.11976  -0.10189
  40 16  H  1S         -0.05880   0.18036  -0.03329  -0.03423   0.33084
  41 17  H  1S          0.01034   0.18735  -0.05246   0.13074  -0.06781
                          11        12        13        14        15
                           O         O         O         O         O
     Eigenvalues --    -0.74395  -0.71824  -0.69895  -0.67797  -0.64819
   1 1   C  1S         -0.04830   0.04151  -0.12530  -0.01872  -0.04742
   2        1PX        -0.17567  -0.00598   0.17855   0.23662  -0.13310
   3        1PY         0.33505  -0.03613  -0.20112  -0.05688   0.01406
   4        1PZ        -0.05682   0.06897  -0.06214   0.24908   0.26899
   5 2   C  1S         -0.00145  -0.06318   0.11256   0.02439   0.02882
   6        1PX         0.08320  -0.03480  -0.08529  -0.26492   0.07473
   7        1PY         0.27437   0.23416   0.25253   0.01436   0.13550
   8        1PZ         0.02021   0.08408  -0.01033   0.27009   0.27293
   9 3   C  1S         -0.00058   0.00272  -0.11497   0.03672   0.03421
  10        1PX        -0.01662   0.38054   0.08915   0.21977  -0.11812
  11        1PY        -0.13664   0.08641  -0.13504  -0.19945  -0.27940
  12        1PZ         0.00250   0.00167  -0.11090   0.18909   0.08732
  13 4   C  1S          0.02104   0.04306   0.05408   0.04052   0.04883
  14        1PX        -0.22727   0.34117   0.06588  -0.24648   0.07980
  15        1PY        -0.11809  -0.13307   0.09534   0.06092  -0.04062
  16        1PZ        -0.11717   0.12317  -0.20321   0.08259   0.34008
  17 5   C  1S          0.01778  -0.05933   0.05629  -0.07490   0.00559
  18        1PX        -0.28603  -0.02443   0.22535   0.06759  -0.08076
  19        1PY         0.15903  -0.06664   0.12014   0.07783   0.26017
  20        1PZ         0.18172   0.01237  -0.09575   0.30767   0.06720
  21 6   C  1S         -0.00020  -0.03021   0.03903  -0.09123  -0.02845
  22        1PX         0.12589   0.13132   0.23449   0.18847  -0.28520
  23        1PY         0.00659   0.33465  -0.05925   0.06303   0.05315
  24        1PZ        -0.12538  -0.23566  -0.16210   0.22733  -0.16207
  25 7   C  1S          0.03135   0.06850  -0.01159   0.07728   0.01726
  26        1PX        -0.05293  -0.05634  -0.27746   0.07964  -0.02107
  27        1PY         0.36556   0.15257   0.02950  -0.18053  -0.19680
  28        1PZ         0.11593   0.00203   0.12926   0.20069  -0.17423
  29 8   H  1S          0.24458   0.00075  -0.26340  -0.18875   0.03805
  30 9   H  1S          0.19871   0.12758   0.21935  -0.00928   0.16809
  31 10  H  1S         -0.04913   0.28944  -0.03397   0.11503  -0.16470
  32 11  H  1S         -0.24748  -0.02881   0.16278  -0.12662  -0.15637
  33 12  H  1S         -0.25538  -0.07360  -0.06371   0.14000   0.20717
  34 13  C  1S         -0.04619   0.03341   0.01828   0.03749  -0.02678
  35        1PX         0.25887  -0.28680   0.09479   0.16656  -0.22041
  36        1PY         0.00183  -0.21100   0.38112  -0.07437   0.22035
  37        1PZ         0.09018  -0.11354  -0.13096   0.19595   0.07209
  38 14  H  1S         -0.12557   0.02622   0.23308  -0.15341   0.20907
  39 15  H  1S         -0.12877   0.25757  -0.26674  -0.01526  -0.08226
  40 16  H  1S         -0.06084  -0.09503  -0.05791   0.17732  -0.18886
  41 17  H  1S         -0.07460  -0.27015  -0.08152  -0.16705   0.09016
                          16        17        18        19        20
                           O         O         O         O         O
     Eigenvalues --    -0.64131  -0.62510  -0.61573  -0.57678  -0.52768
   1 1   C  1S         -0.00543  -0.06510   0.00682  -0.01724   0.00507
   2        1PX         0.27700  -0.01882  -0.02281  -0.01385  -0.03454
   3        1PY         0.14650   0.25037   0.21468   0.07304   0.04331
   4        1PZ        -0.02349  -0.08782   0.20561  -0.27746   0.21232
   5 2   C  1S         -0.06112  -0.01004   0.01458  -0.00814  -0.00601
   6        1PX        -0.26628   0.03125   0.03443   0.05967  -0.00185
   7        1PY        -0.10461  -0.03510  -0.32271   0.03161  -0.07373
   8        1PZ        -0.11023  -0.21545   0.26959  -0.02752   0.49033
   9 3   C  1S          0.05721   0.03061  -0.00133   0.02054   0.01934
  10        1PX         0.24871  -0.17499  -0.08204  -0.02979   0.02848
  11        1PY         0.13132  -0.02384   0.13576  -0.12453  -0.02448
  12        1PZ        -0.07231  -0.21112   0.32879   0.24138   0.14630
  13 4   C  1S         -0.00874   0.02643  -0.02049   0.05010  -0.04484
  14        1PX        -0.06710  -0.05782  -0.08469   0.26784   0.08267
  15        1PY        -0.21378  -0.21115  -0.17814  -0.22572  -0.03763
  16        1PZ         0.04292   0.11936   0.07767  -0.34056  -0.37123
  17 5   C  1S         -0.06320  -0.04864   0.01575  -0.00661  -0.00109
  18        1PX        -0.24952   0.09156   0.29608   0.14879  -0.15312
  19        1PY        -0.11463   0.15058  -0.21607  -0.05080   0.08693
  20        1PZ        -0.00638  -0.20772   0.05041   0.42981  -0.35490
  21 6   C  1S          0.03002   0.00310   0.03920   0.01092   0.01550
  22        1PX        -0.22218   0.21739   0.10685  -0.15147   0.03511
  23        1PY         0.10203   0.44189   0.04395   0.14280   0.02294
  24        1PZ         0.00382   0.12741  -0.30070   0.02751   0.14291
  25 7   C  1S          0.02085   0.03287  -0.01029  -0.05731  -0.03125
  26        1PX         0.17982  -0.11277  -0.14419   0.25427  -0.11221
  27        1PY         0.11007  -0.21925   0.08189  -0.22209   0.04665
  28        1PZ        -0.17694  -0.08305   0.19532   0.16242  -0.37440
  29 8   H  1S         -0.02589   0.16170   0.16632   0.09320   0.04748
  30 9   H  1S         -0.19560  -0.05043  -0.21751   0.03559  -0.01230
  31 10  H  1S          0.27729  -0.12299  -0.03726  -0.07433   0.03074
  32 11  H  1S         -0.16338   0.05914   0.26997  -0.05258  -0.00382
  33 12  H  1S         -0.02945   0.21963  -0.13090   0.13496   0.03414
  34 13  C  1S          0.00679   0.01916   0.00677  -0.02661   0.01509
  35        1PX         0.05055   0.02467   0.02469   0.07472   0.19346
  36        1PY         0.38298   0.06885   0.12550   0.01456  -0.05539
  37        1PZ        -0.01048   0.06164   0.06043  -0.38092  -0.34264
  38 14  H  1S          0.25418   0.04508   0.07772   0.08954  -0.02121
  39 15  H  1S         -0.29422  -0.07395  -0.11290  -0.03631  -0.01041
  40 16  H  1S         -0.01223   0.24241  -0.18010   0.02775   0.18889
  41 17  H  1S          0.05802  -0.40159  -0.09149  -0.00466  -0.02161
                          21        22        23        24        25
                           V         V         V         V         V
     Eigenvalues --    -0.25373  -0.16757  -0.12851  -0.10193  -0.05019
   1 1   C  1S         -0.00894  -0.00572  -0.00242   0.00799  -0.30167
   2        1PX        -0.07265   0.03317   0.02777   0.01410  -0.04373
   3        1PY         0.02993  -0.02425  -0.00020   0.04795   0.43271
   4        1PZ         0.56573  -0.29740  -0.31526   0.37734  -0.02705
   5 2   C  1S         -0.00374   0.00229   0.00561  -0.08620   0.09448
   6        1PX         0.00314   0.01212  -0.03494  -0.01394  -0.24507
   7        1PY        -0.00900  -0.07320  -0.00286   0.13585   0.11881
   8        1PZ        -0.01227   0.47546   0.06530  -0.43535   0.04683
   9 3   C  1S          0.00951  -0.01554  -0.00675   0.06620   0.10087
  10        1PX        -0.09422  -0.02118   0.02562  -0.00212  -0.13979
  11        1PY         0.13801   0.04233  -0.05024  -0.06964   0.00574
  12        1PZ        -0.55867  -0.25146   0.23253   0.45778  -0.00064
  13 4   C  1S          0.03142   0.03688   0.02882   0.07777   0.17463
  14        1PX         0.03125   0.13180  -0.17619   0.17364   0.09956
  15        1PY        -0.05149  -0.13100   0.06251  -0.10050   0.49016
  16        1PZ         0.00017  -0.23717   0.46489  -0.21863  -0.08376
  17 5   C  1S         -0.00087   0.00694   0.00359   0.00618  -0.05203
  18        1PX        -0.00592  -0.12330  -0.17220  -0.18482  -0.01064
  19        1PY        -0.00378   0.06826   0.09837   0.05185  -0.06162
  20        1PZ         0.03220  -0.26490  -0.38252  -0.36505  -0.01041
  21 6   C  1S         -0.01754   0.00016  -0.00232  -0.01752   0.10861
  22        1PX        -0.01174   0.02348  -0.02691   0.09712   0.04429
  23        1PY        -0.02682  -0.01941   0.01824  -0.09133   0.20289
  24        1PZ        -0.01730  -0.00479   0.03494   0.01141  -0.11142
  25 7   C  1S          0.00997  -0.02740   0.04109  -0.06993  -0.07243
  26        1PX         0.19877   0.24935   0.08343   0.16113   0.08001
  27        1PY        -0.08085  -0.11863  -0.06601  -0.11372  -0.00126
  28        1PZ         0.34988   0.37672   0.35121   0.22462  -0.00741
  29 8   H  1S          0.01698   0.06375  -0.03234  -0.00621  -0.12658
  30 9   H  1S         -0.02617   0.01150   0.00881   0.00861  -0.17265
  31 10  H  1S         -0.00490   0.03599   0.03652  -0.00718   0.05437
  32 11  H  1S         -0.03840  -0.03759   0.02265   0.01889   0.03115
  33 12  H  1S         -0.00961   0.01052  -0.01240   0.00528   0.06518
  34 13  C  1S          0.00575  -0.01773  -0.01414   0.00421  -0.05444
  35        1PX         0.15499  -0.18878   0.17221  -0.06889  -0.04754
  36        1PY        -0.04269   0.05102  -0.06506   0.01548   0.21174
  37        1PZ        -0.34962   0.40301  -0.44811   0.19068  -0.02801
  38 14  H  1S          0.01731   0.02621   0.00288   0.03190  -0.19150
  39 15  H  1S         -0.01707  -0.00794   0.00938  -0.01791   0.25623
  40 16  H  1S         -0.07564  -0.03973  -0.15055  -0.01785  -0.06338
  41 17  H  1S          0.02443   0.01115  -0.00419   0.01948   0.13938
                          26        27        28        29        30
                           V         V         V         V         V
     Eigenvalues --    -0.04539  -0.04133  -0.03762  -0.03272  -0.02543
   1 1   C  1S         -0.36452   0.21198   0.11485  -0.05586  -0.11158
   2        1PX         0.13544   0.01562   0.13968  -0.35524   0.05128
   3        1PY         0.00805   0.03935   0.20966  -0.08632  -0.16642
   4        1PZ         0.02896   0.04180  -0.02255   0.02366   0.07169
   5 2   C  1S          0.26917   0.04905  -0.21487   0.10396   0.04769
   6        1PX         0.07152   0.23380  -0.01087  -0.26707   0.02520
   7        1PY        -0.12586   0.04973   0.26643  -0.10553  -0.18195
   8        1PZ        -0.05844  -0.02338   0.10462  -0.06390  -0.08538
   9 3   C  1S         -0.31959  -0.25874   0.24294  -0.19958   0.08628
  10        1PX         0.17761   0.17609  -0.09053  -0.28587   0.20770
  11        1PY         0.04804   0.33822   0.21479  -0.08898  -0.23648
  12        1PZ         0.01645   0.08947   0.00780   0.03858  -0.02527
  13 4   C  1S          0.31831  -0.21747   0.21540  -0.04089  -0.18261
  14        1PX         0.17279  -0.06788   0.08099  -0.15859   0.00057
  15        1PY         0.02011   0.09227  -0.06717  -0.06403   0.11747
  16        1PZ         0.06298  -0.11605  -0.00764  -0.15782  -0.11777
  17 5   C  1S          0.14847   0.23244  -0.14143  -0.02301  -0.30819
  18        1PX         0.01316  -0.02770  -0.01036  -0.14592   0.15329
  19        1PY         0.22217   0.39676   0.08114   0.03302  -0.00587
  20        1PZ         0.06016   0.05243   0.06365   0.05906  -0.14547
  21 6   C  1S         -0.21510   0.07195  -0.28586  -0.07041  -0.05780
  22        1PX         0.04251  -0.17861  -0.22899  -0.32263  -0.24610
  23        1PY        -0.16847   0.27075  -0.06023   0.08279   0.35217
  24        1PZ         0.23222  -0.03399   0.29675   0.05377   0.10822
  25 7   C  1S          0.05354  -0.06858   0.28546   0.06210   0.33845
  26        1PX        -0.13992  -0.05260  -0.23018  -0.23332   0.03178
  27        1PY         0.06671   0.15936   0.12566   0.03302   0.18145
  28        1PZ         0.02782   0.15449   0.11042   0.17439   0.11297
  29 8   H  1S          0.40812  -0.19568  -0.19057  -0.08560   0.24990
  30 9   H  1S         -0.17326  -0.19395  -0.09177   0.11095   0.15357
  31 10  H  1S          0.10266  -0.07369  -0.21940   0.47558  -0.17539
  32 11  H  1S         -0.03593  -0.00321   0.25056   0.21285   0.08883
  33 12  H  1S          0.03917   0.30935  -0.10430   0.04051  -0.09588
  34 13  C  1S         -0.11391   0.09501  -0.10596  -0.09352   0.11264
  35        1PX        -0.02681   0.01671  -0.06054  -0.14200   0.01839
  36        1PY        -0.02062   0.07343  -0.05651  -0.02469   0.12734
  37        1PZ        -0.00949   0.03542   0.01120  -0.00670   0.03368
  38 14  H  1S          0.09855  -0.12946   0.13359   0.03154  -0.19320
  39 15  H  1S          0.07825  -0.00984   0.01065  -0.01288   0.02244
  40 16  H  1S         -0.02078  -0.04966   0.03726   0.08745  -0.08375
  41 17  H  1S          0.07474   0.04047   0.02342  -0.11139   0.17593
                          31        32        33        34        35
                           V         V         V         V         V
     Eigenvalues --    -0.02043  -0.00809  -0.00009   0.00384   0.01013
   1 1   C  1S          0.02669   0.01738  -0.11851   0.18130  -0.00609
   2        1PX        -0.27444  -0.31652   0.10920   0.18612   0.13397
   3        1PY         0.10866   0.05019  -0.23486   0.15400  -0.00689
   4        1PZ        -0.00236  -0.03334   0.02175   0.03936  -0.01079
   5 2   C  1S          0.30254   0.13555  -0.12362  -0.14216  -0.03532
   6        1PX         0.01375  -0.15692  -0.18868   0.30678   0.09088
   7        1PY        -0.08775  -0.07717   0.01563  -0.18233   0.12222
   8        1PZ        -0.05036  -0.01843   0.00144  -0.02798   0.01738
   9 3   C  1S         -0.00999   0.01758   0.17688  -0.15406  -0.09541
  10        1PX         0.32793   0.05741   0.07980  -0.05769  -0.17593
  11        1PY        -0.07293  -0.03816   0.17239  -0.16303  -0.00766
  12        1PZ        -0.00763  -0.00787   0.02195  -0.02635   0.03429
  13 4   C  1S          0.11288   0.03033   0.03934  -0.03323  -0.03363
  14        1PX        -0.20300  -0.04807  -0.30092  -0.02748  -0.01560
  15        1PY        -0.01395  -0.13009   0.05568   0.03510   0.12831
  16        1PZ        -0.10866  -0.01371  -0.08358  -0.02987   0.05292
  17 5   C  1S          0.03703  -0.15681  -0.04721   0.02050  -0.11971
  18        1PX         0.15084   0.16099  -0.09907   0.04489   0.11213
  19        1PY         0.01810   0.06891   0.01436  -0.04120   0.19354
  20        1PZ        -0.13566  -0.03234   0.02785  -0.02990  -0.02587
  21 6   C  1S         -0.00783  -0.02331   0.05033  -0.02108  -0.25306
  22        1PX        -0.17694   0.32949  -0.05667   0.00181   0.05262
  23        1PY        -0.09672   0.13065  -0.04401   0.11694   0.12081
  24        1PZ        -0.16966   0.18465  -0.23280   0.01761  -0.43098
  25 7   C  1S          0.18374  -0.02151  -0.19037   0.04596   0.11704
  26        1PX         0.08812   0.17320   0.06723  -0.03865   0.21222
  27        1PY        -0.10199   0.29067   0.20122  -0.05258   0.00749
  28        1PZ         0.00829  -0.07934   0.06296   0.00907  -0.02563
  29 8   H  1S         -0.24309  -0.20939   0.27419  -0.14266   0.06668
  30 9   H  1S         -0.18448   0.00715   0.14010   0.19028  -0.10081
  31 10  H  1S         -0.24661  -0.04688  -0.23973   0.19563   0.19226
  32 11  H  1S         -0.23027   0.01519   0.13518  -0.07932   0.07047
  33 12  H  1S         -0.25949   0.24973   0.33482  -0.07530  -0.09492
  34 13  C  1S         -0.21487  -0.12555  -0.32298  -0.32354   0.03874
  35        1PX        -0.17494   0.02227  -0.03365   0.30245   0.01580
  36        1PY        -0.02201  -0.26159   0.01120   0.12415  -0.22903
  37        1PZ        -0.05982   0.05325  -0.04127   0.11430   0.00434
  38 14  H  1S          0.10237   0.32549   0.20443   0.31640   0.13434
  39 15  H  1S          0.07801  -0.10540   0.24732   0.48556  -0.20077
  40 16  H  1S          0.24490  -0.26325   0.18377  -0.02562   0.47168
  41 17  H  1S         -0.18763   0.31739  -0.10220   0.08181   0.32085
                          36        37        38        39        40
                           V         V         V         V         V
     Eigenvalues --     0.01304   0.01715   0.01965   0.02144   0.02581
   1 1   C  1S          0.09948  -0.01028   0.03742  -0.14040  -0.03736
   2        1PX         0.08038  -0.23181  -0.09750  -0.13101   0.05748
   3        1PY         0.22654  -0.16105   0.09425   0.19824   0.00499
   4        1PZ         0.00205  -0.03974  -0.02803  -0.03413   0.00207
   5 2   C  1S         -0.17792  -0.02131   0.19596  -0.08844  -0.08246
   6        1PX         0.10253  -0.28789   0.15825  -0.25042  -0.05866
   7        1PY        -0.32113   0.03256  -0.00946  -0.32826   0.11845
   8        1PZ        -0.03315   0.00268  -0.00132  -0.03414   0.01553
   9 3   C  1S         -0.08258  -0.02525  -0.01690   0.03195   0.02188
  10        1PX         0.03237  -0.08590   0.13006   0.16179  -0.25822
  11        1PY        -0.03246   0.29694  -0.28601   0.19467   0.01431
  12        1PZ        -0.01622   0.08816  -0.08649   0.01538   0.06200
  13 4   C  1S          0.28395  -0.10406  -0.07827  -0.09715  -0.02836
  14        1PX        -0.08855   0.10882   0.28044   0.33275   0.11673
  15        1PY        -0.11943  -0.28904  -0.06760   0.17423   0.07226
  16        1PZ         0.02127   0.11628   0.15690   0.09929   0.02719
  17 5   C  1S         -0.03387  -0.00900  -0.29778   0.18139   0.02788
  18        1PX         0.08730   0.14554  -0.16513  -0.06590   0.48188
  19        1PY         0.03651   0.33158  -0.02091  -0.01926  -0.03207
  20        1PZ        -0.02468   0.03389   0.04160   0.00955  -0.20912
  21 6   C  1S         -0.17275  -0.08795  -0.02944  -0.10840   0.07795
  22        1PX         0.11548   0.13037  -0.08036  -0.12787  -0.23427
  23        1PY        -0.15244  -0.09920  -0.29587  -0.00032  -0.18463
  24        1PZ        -0.04016  -0.01612  -0.10727  -0.10010   0.04763
  25 7   C  1S         -0.04422   0.16049  -0.08798  -0.04510   0.10593
  26        1PX         0.05847   0.20350   0.11607  -0.15647   0.09359
  27        1PY         0.19800  -0.04469   0.23557  -0.06872   0.36372
  28        1PZ         0.00882  -0.12845   0.02775   0.09638   0.05203
  29 8   H  1S         -0.15515  -0.00307  -0.11832  -0.08462   0.04169
  30 9   H  1S          0.37037   0.06152  -0.16968   0.37936  -0.01974
  31 10  H  1S          0.03735  -0.00641  -0.00129  -0.18092   0.15485
  32 11  H  1S         -0.03410   0.03084   0.34326  -0.09005  -0.42797
  33 12  H  1S          0.18769  -0.18259   0.24367   0.00618   0.20848
  34 13  C  1S          0.04181   0.01173   0.11772   0.15168   0.05041
  35        1PX        -0.35227   0.19247   0.24885   0.25927   0.08665
  36        1PY         0.19254   0.36889   0.09935  -0.18396  -0.04404
  37        1PZ        -0.19346   0.02096   0.08082   0.14060   0.04657
  38 14  H  1S         -0.34055  -0.16996  -0.02797   0.14637   0.03592
  39 15  H  1S         -0.05861   0.32986   0.09593  -0.11876  -0.02016
  40 16  H  1S          0.14966   0.06053   0.17432   0.17233  -0.00019
  41 17  H  1S          0.09477   0.06710  -0.20230   0.01144  -0.28378
                          41
                           V
     Eigenvalues --     0.02966
   1 1   C  1S         -0.04368
   2        1PX         0.11659
   3        1PY         0.13186
   4        1PZ         0.02324
   5 2   C  1S         -0.10116
   6        1PX         0.02608
   7        1PY        -0.16278
   8        1PZ        -0.02046
   9 3   C  1S         -0.12664
  10        1PX        -0.00153
  11        1PY         0.10042
  12        1PZ         0.02510
  13 4   C  1S          0.05823
  14        1PX        -0.02749
  15        1PY         0.22429
  16        1PZ        -0.06188
  17 5   C  1S         -0.17774
  18        1PX         0.00419
  19        1PY         0.37565
  20        1PZ         0.09755
  21 6   C  1S          0.34879
  22        1PX        -0.05352
  23        1PY        -0.12527
  24        1PZ         0.03420
  25 7   C  1S          0.14226
  26        1PX         0.33190
  27        1PY        -0.05908
  28        1PZ        -0.18534
  29 8   H  1S          0.00151
  30 9   H  1S          0.18333
  31 10  H  1S          0.04889
  32 11  H  1S          0.27294
  33 12  H  1S         -0.18093
  34 13  C  1S         -0.01231
  35        1PX        -0.06175
  36        1PY        -0.17815
  37        1PZ         0.00502
  38 14  H  1S          0.09427
  39 15  H  1S         -0.12198
  40 16  H  1S         -0.21042
  41 17  H  1S         -0.32382
     Density Matrix:
                           1         2         3         4         5
   1 1   C  1S          1.23971
   2        1PX        -0.04569   0.96007
   3        1PY         0.04780  -0.04863   0.98430
   4        1PZ        -0.00444   0.03531  -0.02681   0.66573
   5 2   C  1S          0.28683   0.47231   0.04782   0.07346   1.21495
   6        1PX        -0.47703  -0.60860  -0.08402  -0.09315   0.02600
   7        1PY        -0.11153  -0.15004   0.11041  -0.08623   0.07197
   8        1PZ        -0.03160  -0.10340   0.00175   0.69416   0.02355
   9 3   C  1S         -0.00911  -0.03052   0.00554  -0.01174   0.28194
  10        1PX         0.03018   0.04169   0.01460   0.07401  -0.36750
  11        1PY        -0.00956  -0.02610  -0.00483  -0.07450   0.28314
  12        1PZ        -0.00998  -0.06548   0.02572   0.28052   0.11053
  13 4   C  1S          0.27149  -0.18731  -0.42814  -0.02741  -0.01280
  14        1PX         0.22664  -0.03282  -0.34465  -0.12798  -0.01760
  15        1PY         0.40935  -0.29621  -0.49118   0.06014  -0.02076
  16        1PZ         0.01432  -0.05730  -0.00242   0.37559  -0.00315
  17 5   C  1S         -0.01085  -0.01345  -0.00229   0.00160  -0.00771
  18        1PX        -0.00039   0.00915   0.00429  -0.04039   0.01143
  19        1PY        -0.01585  -0.01986   0.00120   0.03920  -0.03232
  20        1PZ        -0.00005   0.02267   0.00058  -0.14728  -0.01309
  21 6   C  1S         -0.01859   0.00751   0.03141   0.00330  -0.00740
  22        1PX         0.00563  -0.00540  -0.02314   0.01679   0.00929
  23        1PY        -0.03782   0.02790   0.05279   0.02648  -0.01132
  24        1PZ         0.00806  -0.00992  -0.02301   0.00403   0.00060
  25 7   C  1S         -0.00058   0.00147   0.00358   0.01572  -0.01047
  26        1PX         0.00443   0.02427  -0.01063  -0.12005  -0.00164
  27        1PY         0.00128  -0.00142   0.00534   0.04578  -0.01006
  28        1PZ         0.00025   0.01946  -0.01673  -0.15724   0.01510
  29 8   H  1S          0.55201  -0.46600   0.64119  -0.07814  -0.04636
  30 9   H  1S         -0.04702  -0.05502   0.00814   0.00868   0.56206
  31 10  H  1S          0.05084   0.06865   0.00220   0.03019  -0.04779
  32 11  H  1S          0.00042  -0.00717  -0.00012   0.02022   0.04603
  33 12  H  1S         -0.00353   0.00015   0.00189  -0.00106  -0.00057
  34 13  C  1S         -0.03192   0.01907   0.01865  -0.00088   0.02330
  35        1PX        -0.03020   0.01952   0.04984  -0.09859   0.02332
  36        1PY        -0.02408  -0.00655   0.00476   0.01008   0.01101
  37        1PZ        -0.01505  -0.01728   0.02374   0.21324   0.02166
  38 14  H  1S         -0.02200   0.01178   0.02372  -0.01621   0.00382
  39 15  H  1S          0.06223  -0.03904  -0.06744   0.01157  -0.01477
  40 16  H  1S         -0.00898   0.00548   0.01486   0.01529   0.00213
  41 17  H  1S          0.04347  -0.01917  -0.05766  -0.02160   0.00315
                           6         7         8         9        10
   6        1PX         0.91692
   7        1PY         0.03631   1.02761
   8        1PZ         0.00038  -0.01619   1.08924
   9 3   C  1S          0.32949  -0.35355  -0.06221   1.23974
  10        1PX        -0.27852   0.40145   0.13236   0.05959   1.01035
  11        1PY         0.31809  -0.18503  -0.17238   0.01227   0.05717
  12        1PZ         0.12726  -0.21518   0.59336   0.01055  -0.05222
  13 4   C  1S          0.03625   0.02431  -0.01367  -0.01133   0.01175
  14        1PX         0.03245   0.00519   0.01013  -0.00972   0.01740
  15        1PY         0.05692   0.02028   0.01775  -0.01461   0.00263
  16        1PZ         0.00275   0.00781  -0.06457   0.00624  -0.02152
  17 5   C  1S         -0.01447   0.03264   0.01008   0.27034  -0.06515
  18        1PX         0.00835   0.00096  -0.00509   0.00298   0.13038
  19        1PY        -0.04743   0.05884   0.01476   0.46813  -0.11037
  20        1PZ        -0.01495   0.03285  -0.04163   0.12647   0.03737
  21 6   C  1S          0.01048  -0.00046  -0.00732  -0.01281  -0.00139
  22        1PX        -0.00113  -0.01336   0.01844  -0.01819  -0.00090
  23        1PY         0.00732   0.00515  -0.01904   0.00959  -0.01023
  24        1PZ        -0.01036   0.00214   0.00533   0.00862  -0.00492
  25 7   C  1S         -0.00862   0.01120  -0.01193  -0.00982   0.01169
  26        1PX         0.00182   0.01653  -0.09676  -0.02152   0.02951
  27        1PY        -0.00655   0.00267   0.03695  -0.02810  -0.00519
  28        1PZ         0.00670   0.01689  -0.17245  -0.00514   0.02216
  29 8   H  1S          0.05431   0.01934  -0.00026   0.05094  -0.05524
  30 9   H  1S          0.23419   0.74628   0.09445  -0.04659   0.04238
  31 10  H  1S         -0.03327   0.04720   0.00057   0.54733   0.73951
  32 11  H  1S          0.04436  -0.05832   0.01784  -0.04846   0.01337
  33 12  H  1S         -0.00346   0.00380   0.00134   0.05596  -0.01705
  34 13  C  1S         -0.03369  -0.01368   0.01471  -0.00082   0.00220
  35        1PX        -0.03345  -0.01756   0.08904   0.00108   0.01248
  36        1PY        -0.01188   0.00040  -0.02041  -0.00111  -0.00134
  37        1PZ        -0.03390   0.00240  -0.16360   0.00154  -0.02967
  38 14  H  1S         -0.00622  -0.00170  -0.00486   0.00054   0.00211
  39 15  H  1S          0.02444   0.00863  -0.00552  -0.00151  -0.00156
  40 16  H  1S         -0.00648  -0.00817   0.04012   0.00622  -0.00746
  41 17  H  1S          0.00093  -0.00090   0.00423   0.00119   0.00304
                          11        12        13        14        15
  11        1PY         0.92547
  12        1PZ         0.05904   0.65572
  13 4   C  1S         -0.01346   0.00690   1.20319
  14        1PX        -0.02393   0.05386   0.01037   0.97174
  15        1PY         0.01316  -0.06693  -0.02580  -0.02645   0.93684
  16        1PZ         0.02726  -0.10960   0.00897  -0.04837   0.01721
  17 5   C  1S         -0.44748  -0.10463  -0.00393  -0.00116   0.00883
  18        1PX        -0.04180   0.09888   0.02335   0.01646  -0.03030
  19        1PY        -0.58946  -0.23552  -0.00370  -0.00102   0.02085
  20        1PZ        -0.25976   0.40815   0.04165   0.02566  -0.04735
  21 6   C  1S          0.01893  -0.00657   0.22925   0.18682  -0.32144
  22        1PX         0.02448  -0.02707  -0.20722  -0.05992   0.26937
  23        1PY        -0.00261  -0.00393   0.38870   0.28911  -0.40458
  24        1PZ        -0.00938  -0.03398  -0.21044  -0.17290   0.28021
  25 7   C  1S          0.02955   0.00192  -0.01185  -0.01112   0.01733
  26        1PX         0.00981   0.14566   0.00878  -0.01731   0.00409
  27        1PY         0.05666  -0.03531  -0.00669   0.01652  -0.00305
  28        1PZ        -0.06500   0.19934  -0.03221  -0.06448   0.07639
  29 8   H  1S          0.02928   0.05666  -0.04157  -0.03941  -0.06118
  30 9   H  1S         -0.01772  -0.03314   0.05309   0.04354   0.06191
  31 10  H  1S          0.30779  -0.04086  -0.00187  -0.00005   0.00004
  32 11  H  1S          0.06071  -0.02693  -0.00069   0.00306  -0.00444
  33 12  H  1S         -0.07812  -0.01613   0.03314   0.02360  -0.03329
  34 13  C  1S         -0.00087   0.00004   0.30663  -0.43648  -0.02555
  35        1PX        -0.01704   0.06795   0.47059  -0.40161  -0.08994
  36        1PY         0.00192  -0.01316   0.01850  -0.06964   0.16244
  37        1PZ         0.04216  -0.15703   0.20424  -0.52473   0.10447
  38 14  H  1S         -0.00472   0.01294  -0.04158   0.06625   0.01597
  39 15  H  1S          0.00357  -0.01272  -0.04210   0.05932  -0.01330
  40 16  H  1S          0.00268  -0.03275  -0.01748  -0.00942   0.03236
  41 17  H  1S         -0.00527   0.02088  -0.02825  -0.03630   0.02732
                          16        17        18        19        20
  16        1PZ         1.08169
  17 5   C  1S         -0.00564   1.21499
  18        1PX         0.01393   0.06161   1.01856
  19        1PY        -0.00712  -0.03032  -0.05131   0.93203
  20        1PZ         0.03548  -0.03712   0.00814  -0.02518   1.07082
  21 6   C  1S          0.14546  -0.01136   0.02796   0.01110  -0.01915
  22        1PX        -0.14692  -0.03129   0.04758   0.04023  -0.02855
  23        1PY         0.24653  -0.00399  -0.01637  -0.00179   0.00412
  24        1PZ        -0.00199   0.01152  -0.04928  -0.00961  -0.02488
  25 7   C  1S         -0.00205   0.29796  -0.39869  -0.27020   0.09879
  26        1PX         0.05144   0.36517  -0.18585  -0.39682   0.38774
  27        1PY        -0.03103   0.31649  -0.45410  -0.09562  -0.04771
  28        1PZ         0.05399  -0.09688   0.37682  -0.05367   0.64400
  29 8   H  1S         -0.00065   0.00017   0.00317  -0.00482   0.00056
  30 9   H  1S         -0.00412   0.04806  -0.00220   0.07163   0.02737
  31 10  H  1S         -0.00524  -0.04457   0.00387  -0.05803  -0.01457
  32 11  H  1S         -0.00741   0.56182   0.63790  -0.30393  -0.34518
  33 12  H  1S          0.02025  -0.04966   0.05124   0.02166  -0.01320
  34 13  C  1S         -0.17414  -0.00103  -0.00325   0.00314  -0.01129
  35        1PX        -0.52030   0.00053  -0.01151   0.00589  -0.03127
  36        1PY         0.08122   0.00034   0.00190  -0.00201   0.00580
  37        1PZ         0.63812  -0.00111   0.01043  -0.00560   0.03312
  38 14  H  1S          0.02912  -0.00099   0.00669  -0.00485   0.01324
  39 15  H  1S          0.02277   0.00098  -0.00158   0.00261  -0.00173
  40 16  H  1S         -0.00786  -0.00430  -0.03843   0.02273  -0.08892
  41 17  H  1S         -0.01363   0.04409  -0.04424  -0.03089   0.02442
                          21        22        23        24        25
  21 6   C  1S          1.20115
  22        1PX        -0.01834   0.95929
  23        1PY        -0.03797   0.08633   0.97168
  24        1PZ         0.05468   0.03515   0.03780   0.99639
  25 7   C  1S          0.22226   0.38477  -0.11811  -0.26140   1.24929
  26        1PX        -0.32660  -0.39424   0.16409   0.38857  -0.02993
  27        1PY         0.13373   0.18662   0.03413  -0.15389  -0.06298
  28        1PZ         0.21541   0.36809  -0.10640  -0.05820  -0.00783
  29 8   H  1S          0.03886  -0.02381   0.06033  -0.03320  -0.00189
  30 9   H  1S         -0.00222  -0.00212  -0.00235   0.00351   0.00017
  31 10  H  1S          0.00181   0.00162  -0.00082   0.00329   0.04620
  32 11  H  1S          0.04763   0.07074  -0.01747  -0.05241  -0.04229
  33 12  H  1S         -0.04226  -0.05470   0.02023   0.04784   0.55829
  34 13  C  1S         -0.02498   0.02890  -0.01396   0.01998   0.01227
  35        1PX        -0.01719   0.02562  -0.03585   0.04219  -0.00481
  36        1PY         0.01640  -0.00173   0.00090  -0.00561   0.00607
  37        1PZ        -0.02750  -0.00625  -0.02955  -0.02754   0.05481
  38 14  H  1S          0.05154  -0.04563   0.06480  -0.04322  -0.00816
  39 15  H  1S         -0.01871   0.01324  -0.02389   0.01277   0.00176
  40 16  H  1S          0.49945   0.24791   0.22372   0.76032  -0.01948
  41 17  H  1S          0.50884  -0.54056  -0.63879   0.02297  -0.03209
                          26        27        28        29        30
  26        1PX         0.87541
  27        1PY         0.00930   1.01410
  28        1PZ        -0.09032   0.05944   0.81409
  29 8   H  1S         -0.01008   0.00358  -0.01972   0.83540
  30 9   H  1S         -0.00061  -0.00359   0.00698  -0.02618   0.81906
  31 10  H  1S          0.03051   0.05288  -0.03825  -0.02589  -0.02846
  32 11  H  1S         -0.01861  -0.04507   0.03141   0.01001  -0.02270
  33 12  H  1S          0.03648  -0.76180  -0.21652   0.00392   0.00918
  34 13  C  1S         -0.01264   0.00880   0.01298  -0.01011  -0.01091
  35        1PX        -0.01213   0.00463  -0.03592   0.00342  -0.01015
  36        1PY        -0.00716   0.00482   0.00742  -0.00114  -0.00417
  37        1PZ        -0.01132   0.01046   0.13854  -0.03832  -0.02138
  38 14  H  1S          0.00354  -0.00264  -0.02116   0.02442  -0.00364
  39 15  H  1S          0.00244  -0.00096   0.01089   0.00172   0.01427
  40 16  H  1S          0.07532  -0.02965   0.04011   0.00590  -0.00055
  41 17  H  1S          0.01685  -0.01875  -0.03658  -0.02342   0.00564
                          31        32        33        34        35
  31 10  H  1S          0.83407
  32 11  H  1S         -0.02318   0.81901
  33 12  H  1S         -0.02579  -0.02786   0.83151
  34 13  C  1S          0.00460   0.00219  -0.00563   1.25588
  35        1PX         0.00732   0.00262   0.00105  -0.08041   0.90589
  36        1PY         0.00085   0.00026  -0.00332  -0.00267   0.01715
  37        1PZ        -0.00345   0.00108  -0.02692  -0.03032   0.07471
  38 14  H  1S          0.00027  -0.00055   0.00866   0.54993  -0.36005
  39 15  H  1S         -0.00267  -0.00057  -0.00165   0.54892  -0.38246
  40 16  H  1S          0.00640  -0.00709   0.04506   0.02858   0.07522
  41 17  H  1S          0.00321  -0.01999  -0.02719  -0.01473  -0.02001
                          36        37        38        39        40
  36        1PY         1.06597
  37        1PZ        -0.03620   0.77437
  38 14  H  1S          0.67411  -0.25246   0.85012
  39 15  H  1S         -0.70642  -0.05948  -0.07612   0.84260
  40 16  H  1S         -0.01547  -0.08831  -0.01708   0.00237   0.86028
  41 17  H  1S         -0.00497  -0.00375   0.00498   0.02226  -0.03218
                          41
  41 17  H  1S          0.86472
    Full Mulliken population analysis:
                           1         2         3         4         5
   1 1   C  1S          1.23971
   2        1PX         0.00000   0.96007
   3        1PY         0.00000   0.00000   0.98430
   4        1PZ         0.00000   0.00000   0.00000   0.66573
   5 2   C  1S          0.00000   0.00000   0.00000   0.00000   1.21495
   6        1PX         0.00000   0.00000   0.00000   0.00000   0.00000
   7        1PY         0.00000   0.00000   0.00000   0.00000   0.00000
   8        1PZ         0.00000   0.00000   0.00000   0.00000   0.00000
   9 3   C  1S          0.00000   0.00000   0.00000   0.00000   0.00000
  10        1PX         0.00000   0.00000   0.00000   0.00000   0.00000
  11        1PY         0.00000   0.00000   0.00000   0.00000   0.00000
  12        1PZ         0.00000   0.00000   0.00000   0.00000   0.00000
  13 4   C  1S          0.00000   0.00000   0.00000   0.00000   0.00000
  14        1PX         0.00000   0.00000   0.00000   0.00000   0.00000
  15        1PY         0.00000   0.00000   0.00000   0.00000   0.00000
  16        1PZ         0.00000   0.00000   0.00000   0.00000   0.00000
  17 5   C  1S          0.00000   0.00000   0.00000   0.00000   0.00000
  18        1PX         0.00000   0.00000   0.00000   0.00000   0.00000
  19        1PY         0.00000   0.00000   0.00000   0.00000   0.00000
  20        1PZ         0.00000   0.00000   0.00000   0.00000   0.00000
  21 6   C  1S          0.00000   0.00000   0.00000   0.00000   0.00000
  22        1PX         0.00000   0.00000   0.00000   0.00000   0.00000
  23        1PY         0.00000   0.00000   0.00000   0.00000   0.00000
  24        1PZ         0.00000   0.00000   0.00000   0.00000   0.00000
  25 7   C  1S          0.00000   0.00000   0.00000   0.00000   0.00000
  26        1PX         0.00000   0.00000   0.00000   0.00000   0.00000
  27        1PY         0.00000   0.00000   0.00000   0.00000   0.00000
  28        1PZ         0.00000   0.00000   0.00000   0.00000   0.00000
  29 8   H  1S          0.00000   0.00000   0.00000   0.00000   0.00000
  30 9   H  1S          0.00000   0.00000   0.00000   0.00000   0.00000
  31 10  H  1S          0.00000   0.00000   0.00000   0.00000   0.00000
  32 11  H  1S          0.00000   0.00000   0.00000   0.00000   0.00000
  33 12  H  1S          0.00000   0.00000   0.00000   0.00000   0.00000
  34 13  C  1S          0.00000   0.00000   0.00000   0.00000   0.00000
  35        1PX         0.00000   0.00000   0.00000   0.00000   0.00000
  36        1PY         0.00000   0.00000   0.00000   0.00000   0.00000
  37        1PZ         0.00000   0.00000   0.00000   0.00000   0.00000
  38 14  H  1S          0.00000   0.00000   0.00000   0.00000   0.00000
  39 15  H  1S          0.00000   0.00000   0.00000   0.00000   0.00000
  40 16  H  1S          0.00000   0.00000   0.00000   0.00000   0.00000
  41 17  H  1S          0.00000   0.00000   0.00000   0.00000   0.00000
                           6         7         8         9        10
   6        1PX         0.91692
   7        1PY         0.00000   1.02761
   8        1PZ         0.00000   0.00000   1.08924
   9 3   C  1S          0.00000   0.00000   0.00000   1.23974
  10        1PX         0.00000   0.00000   0.00000   0.00000   1.01035
  11        1PY         0.00000   0.00000   0.00000   0.00000   0.00000
  12        1PZ         0.00000   0.00000   0.00000   0.00000   0.00000
  13 4   C  1S          0.00000   0.00000   0.00000   0.00000   0.00000
  14        1PX         0.00000   0.00000   0.00000   0.00000   0.00000
  15        1PY         0.00000   0.00000   0.00000   0.00000   0.00000
  16        1PZ         0.00000   0.00000   0.00000   0.00000   0.00000
  17 5   C  1S          0.00000   0.00000   0.00000   0.00000   0.00000
  18        1PX         0.00000   0.00000   0.00000   0.00000   0.00000
  19        1PY         0.00000   0.00000   0.00000   0.00000   0.00000
  20        1PZ         0.00000   0.00000   0.00000   0.00000   0.00000
  21 6   C  1S          0.00000   0.00000   0.00000   0.00000   0.00000
  22        1PX         0.00000   0.00000   0.00000   0.00000   0.00000
  23        1PY         0.00000   0.00000   0.00000   0.00000   0.00000
  24        1PZ         0.00000   0.00000   0.00000   0.00000   0.00000
  25 7   C  1S          0.00000   0.00000   0.00000   0.00000   0.00000
  26        1PX         0.00000   0.00000   0.00000   0.00000   0.00000
  27        1PY         0.00000   0.00000   0.00000   0.00000   0.00000
  28        1PZ         0.00000   0.00000   0.00000   0.00000   0.00000
  29 8   H  1S          0.00000   0.00000   0.00000   0.00000   0.00000
  30 9   H  1S          0.00000   0.00000   0.00000   0.00000   0.00000
  31 10  H  1S          0.00000   0.00000   0.00000   0.00000   0.00000
  32 11  H  1S          0.00000   0.00000   0.00000   0.00000   0.00000
  33 12  H  1S          0.00000   0.00000   0.00000   0.00000   0.00000
  34 13  C  1S          0.00000   0.00000   0.00000   0.00000   0.00000
  35        1PX         0.00000   0.00000   0.00000   0.00000   0.00000
  36        1PY         0.00000   0.00000   0.00000   0.00000   0.00000
  37        1PZ         0.00000   0.00000   0.00000   0.00000   0.00000
  38 14  H  1S          0.00000   0.00000   0.00000   0.00000   0.00000
  39 15  H  1S          0.00000   0.00000   0.00000   0.00000   0.00000
  40 16  H  1S          0.00000   0.00000   0.00000   0.00000   0.00000
  41 17  H  1S          0.00000   0.00000   0.00000   0.00000   0.00000
                          11        12        13        14        15
  11        1PY         0.92547
  12        1PZ         0.00000   0.65572
  13 4   C  1S          0.00000   0.00000   1.20319
  14        1PX         0.00000   0.00000   0.00000   0.97174
  15        1PY         0.00000   0.00000   0.00000   0.00000   0.93684
  16        1PZ         0.00000   0.00000   0.00000   0.00000   0.00000
  17 5   C  1S          0.00000   0.00000   0.00000   0.00000   0.00000
  18        1PX         0.00000   0.00000   0.00000   0.00000   0.00000
  19        1PY         0.00000   0.00000   0.00000   0.00000   0.00000
  20        1PZ         0.00000   0.00000   0.00000   0.00000   0.00000
  21 6   C  1S          0.00000   0.00000   0.00000   0.00000   0.00000
  22        1PX         0.00000   0.00000   0.00000   0.00000   0.00000
  23        1PY         0.00000   0.00000   0.00000   0.00000   0.00000
  24        1PZ         0.00000   0.00000   0.00000   0.00000   0.00000
  25 7   C  1S          0.00000   0.00000   0.00000   0.00000   0.00000
  26        1PX         0.00000   0.00000   0.00000   0.00000   0.00000
  27        1PY         0.00000   0.00000   0.00000   0.00000   0.00000
  28        1PZ         0.00000   0.00000   0.00000   0.00000   0.00000
  29 8   H  1S          0.00000   0.00000   0.00000   0.00000   0.00000
  30 9   H  1S          0.00000   0.00000   0.00000   0.00000   0.00000
  31 10  H  1S          0.00000   0.00000   0.00000   0.00000   0.00000
  32 11  H  1S          0.00000   0.00000   0.00000   0.00000   0.00000
  33 12  H  1S          0.00000   0.00000   0.00000   0.00000   0.00000
  34 13  C  1S          0.00000   0.00000   0.00000   0.00000   0.00000
  35        1PX         0.00000   0.00000   0.00000   0.00000   0.00000
  36        1PY         0.00000   0.00000   0.00000   0.00000   0.00000
  37        1PZ         0.00000   0.00000   0.00000   0.00000   0.00000
  38 14  H  1S          0.00000   0.00000   0.00000   0.00000   0.00000
  39 15  H  1S          0.00000   0.00000   0.00000   0.00000   0.00000
  40 16  H  1S          0.00000   0.00000   0.00000   0.00000   0.00000
  41 17  H  1S          0.00000   0.00000   0.00000   0.00000   0.00000
                          16        17        18        19        20
  16        1PZ         1.08169
  17 5   C  1S          0.00000   1.21499
  18        1PX         0.00000   0.00000   1.01856
  19        1PY         0.00000   0.00000   0.00000   0.93203
  20        1PZ         0.00000   0.00000   0.00000   0.00000   1.07082
  21 6   C  1S          0.00000   0.00000   0.00000   0.00000   0.00000
  22        1PX         0.00000   0.00000   0.00000   0.00000   0.00000
  23        1PY         0.00000   0.00000   0.00000   0.00000   0.00000
  24        1PZ         0.00000   0.00000   0.00000   0.00000   0.00000
  25 7   C  1S          0.00000   0.00000   0.00000   0.00000   0.00000
  26        1PX         0.00000   0.00000   0.00000   0.00000   0.00000
  27        1PY         0.00000   0.00000   0.00000   0.00000   0.00000
  28        1PZ         0.00000   0.00000   0.00000   0.00000   0.00000
  29 8   H  1S          0.00000   0.00000   0.00000   0.00000   0.00000
  30 9   H  1S          0.00000   0.00000   0.00000   0.00000   0.00000
  31 10  H  1S          0.00000   0.00000   0.00000   0.00000   0.00000
  32 11  H  1S          0.00000   0.00000   0.00000   0.00000   0.00000
  33 12  H  1S          0.00000   0.00000   0.00000   0.00000   0.00000
  34 13  C  1S          0.00000   0.00000   0.00000   0.00000   0.00000
  35        1PX         0.00000   0.00000   0.00000   0.00000   0.00000
  36        1PY         0.00000   0.00000   0.00000   0.00000   0.00000
  37        1PZ         0.00000   0.00000   0.00000   0.00000   0.00000
  38 14  H  1S          0.00000   0.00000   0.00000   0.00000   0.00000
  39 15  H  1S          0.00000   0.00000   0.00000   0.00000   0.00000
  40 16  H  1S          0.00000   0.00000   0.00000   0.00000   0.00000
  41 17  H  1S          0.00000   0.00000   0.00000   0.00000   0.00000
                          21        22        23        24        25
  21 6   C  1S          1.20115
  22        1PX         0.00000   0.95929
  23        1PY         0.00000   0.00000   0.97168
  24        1PZ         0.00000   0.00000   0.00000   0.99639
  25 7   C  1S          0.00000   0.00000   0.00000   0.00000   1.24929
  26        1PX         0.00000   0.00000   0.00000   0.00000   0.00000
  27        1PY         0.00000   0.00000   0.00000   0.00000   0.00000
  28        1PZ         0.00000   0.00000   0.00000   0.00000   0.00000
  29 8   H  1S          0.00000   0.00000   0.00000   0.00000   0.00000
  30 9   H  1S          0.00000   0.00000   0.00000   0.00000   0.00000
  31 10  H  1S          0.00000   0.00000   0.00000   0.00000   0.00000
  32 11  H  1S          0.00000   0.00000   0.00000   0.00000   0.00000
  33 12  H  1S          0.00000   0.00000   0.00000   0.00000   0.00000
  34 13  C  1S          0.00000   0.00000   0.00000   0.00000   0.00000
  35        1PX         0.00000   0.00000   0.00000   0.00000   0.00000
  36        1PY         0.00000   0.00000   0.00000   0.00000   0.00000
  37        1PZ         0.00000   0.00000   0.00000   0.00000   0.00000
  38 14  H  1S          0.00000   0.00000   0.00000   0.00000   0.00000
  39 15  H  1S          0.00000   0.00000   0.00000   0.00000   0.00000
  40 16  H  1S          0.00000   0.00000   0.00000   0.00000   0.00000
  41 17  H  1S          0.00000   0.00000   0.00000   0.00000   0.00000
                          26        27        28        29        30
  26        1PX         0.87541
  27        1PY         0.00000   1.01410
  28        1PZ         0.00000   0.00000   0.81409
  29 8   H  1S          0.00000   0.00000   0.00000   0.83540
  30 9   H  1S          0.00000   0.00000   0.00000   0.00000   0.81906
  31 10  H  1S          0.00000   0.00000   0.00000   0.00000   0.00000
  32 11  H  1S          0.00000   0.00000   0.00000   0.00000   0.00000
  33 12  H  1S          0.00000   0.00000   0.00000   0.00000   0.00000
  34 13  C  1S          0.00000   0.00000   0.00000   0.00000   0.00000
  35        1PX         0.00000   0.00000   0.00000   0.00000   0.00000
  36        1PY         0.00000   0.00000   0.00000   0.00000   0.00000
  37        1PZ         0.00000   0.00000   0.00000   0.00000   0.00000
  38 14  H  1S          0.00000   0.00000   0.00000   0.00000   0.00000
  39 15  H  1S          0.00000   0.00000   0.00000   0.00000   0.00000
  40 16  H  1S          0.00000   0.00000   0.00000   0.00000   0.00000
  41 17  H  1S          0.00000   0.00000   0.00000   0.00000   0.00000
                          31        32        33        34        35
  31 10  H  1S          0.83407
  32 11  H  1S          0.00000   0.81901
  33 12  H  1S          0.00000   0.00000   0.83151
  34 13  C  1S          0.00000   0.00000   0.00000   1.25588
  35        1PX         0.00000   0.00000   0.00000   0.00000   0.90589
  36        1PY         0.00000   0.00000   0.00000   0.00000   0.00000
  37        1PZ         0.00000   0.00000   0.00000   0.00000   0.00000
  38 14  H  1S          0.00000   0.00000   0.00000   0.00000   0.00000
  39 15  H  1S          0.00000   0.00000   0.00000   0.00000   0.00000
  40 16  H  1S          0.00000   0.00000   0.00000   0.00000   0.00000
  41 17  H  1S          0.00000   0.00000   0.00000   0.00000   0.00000
                          36        37        38        39        40
  36        1PY         1.06597
  37        1PZ         0.00000   0.77437
  38 14  H  1S          0.00000   0.00000   0.85012
  39 15  H  1S          0.00000   0.00000   0.00000   0.84260
  40 16  H  1S          0.00000   0.00000   0.00000   0.00000   0.86028
  41 17  H  1S          0.00000   0.00000   0.00000   0.00000   0.00000
                          41
  41 17  H  1S          0.86472
     Gross orbital populations:
                           1
   1 1   C  1S          1.23971
   2        1PX         0.96007
   3        1PY         0.98430
   4        1PZ         0.66573
   5 2   C  1S          1.21495
   6        1PX         0.91692
   7        1PY         1.02761
   8        1PZ         1.08924
   9 3   C  1S          1.23974
  10        1PX         1.01035
  11        1PY         0.92547
  12        1PZ         0.65572
  13 4   C  1S          1.20319
  14        1PX         0.97174
  15        1PY         0.93684
  16        1PZ         1.08169
  17 5   C  1S          1.21499
  18        1PX         1.01856
  19        1PY         0.93203
  20        1PZ         1.07082
  21 6   C  1S          1.20115
  22        1PX         0.95929
  23        1PY         0.97168
  24        1PZ         0.99639
  25 7   C  1S          1.24929
  26        1PX         0.87541
  27        1PY         1.01410
  28        1PZ         0.81409
  29 8   H  1S          0.83540
  30 9   H  1S          0.81906
  31 10  H  1S          0.83407
  32 11  H  1S          0.81901
  33 12  H  1S          0.83151
  34 13  C  1S          1.25588
  35        1PX         0.90589
  36        1PY         1.06597
  37        1PZ         0.77437
  38 14  H  1S          0.85012
  39 15  H  1S          0.84260
  40 16  H  1S          0.86028
  41 17  H  1S          0.86472
          Condensed to atoms (all electrons):
               1          2          3          4          5          6
     1  C    3.849816   0.000000   0.000000   0.000000   0.000000   0.000000
     2  C    0.000000   4.248732   0.000000   0.000000   0.000000   0.000000
     3  C    0.000000   0.000000   3.831284   0.000000   0.000000   0.000000
     4  C    0.000000   0.000000   0.000000   4.193457   0.000000   0.000000
     5  C    0.000000   0.000000   0.000000   0.000000   4.236409   0.000000
     6  C    0.000000   0.000000   0.000000   0.000000   0.000000   4.128516
     7  C    0.000000   0.000000   0.000000   0.000000   0.000000   0.000000
     8  H    0.000000   0.000000   0.000000   0.000000   0.000000   0.000000
     9  H    0.000000   0.000000   0.000000   0.000000   0.000000   0.000000
    10  H    0.000000   0.000000   0.000000   0.000000   0.000000   0.000000
    11  H    0.000000   0.000000   0.000000   0.000000   0.000000   0.000000
    12  H    0.000000   0.000000   0.000000   0.000000   0.000000   0.000000
    13  C    0.000000   0.000000   0.000000   0.000000   0.000000   0.000000
    14  H    0.000000   0.000000   0.000000   0.000000   0.000000   0.000000
    15  H    0.000000   0.000000   0.000000   0.000000   0.000000   0.000000
    16  H    0.000000   0.000000   0.000000   0.000000   0.000000   0.000000
    17  H    0.000000   0.000000   0.000000   0.000000   0.000000   0.000000
               7          8          9         10         11         12
     1  C    0.000000   0.000000   0.000000   0.000000   0.000000   0.000000
     2  C    0.000000   0.000000   0.000000   0.000000   0.000000   0.000000
     3  C    0.000000   0.000000   0.000000   0.000000   0.000000   0.000000
     4  C    0.000000   0.000000   0.000000   0.000000   0.000000   0.000000
     5  C    0.000000   0.000000   0.000000   0.000000   0.000000   0.000000
     6  C    0.000000   0.000000   0.000000   0.000000   0.000000   0.000000
     7  C    3.952883   0.000000   0.000000   0.000000   0.000000   0.000000
     8  H    0.000000   0.835403   0.000000   0.000000   0.000000   0.000000
     9  H    0.000000   0.000000   0.819061   0.000000   0.000000   0.000000
    10  H    0.000000   0.000000   0.000000   0.834071   0.000000   0.000000
    11  H    0.000000   0.000000   0.000000   0.000000   0.819015   0.000000
    12  H    0.000000   0.000000   0.000000   0.000000   0.000000   0.831511
    13  C    0.000000   0.000000   0.000000   0.000000   0.000000   0.000000
    14  H    0.000000   0.000000   0.000000   0.000000   0.000000   0.000000
    15  H    0.000000   0.000000   0.000000   0.000000   0.000000   0.000000
    16  H    0.000000   0.000000   0.000000   0.000000   0.000000   0.000000
    17  H    0.000000   0.000000   0.000000   0.000000   0.000000   0.000000
              13         14         15         16         17
     1  C    0.000000   0.000000   0.000000   0.000000   0.000000
     2  C    0.000000   0.000000   0.000000   0.000000   0.000000
     3  C    0.000000   0.000000   0.000000   0.000000   0.000000
     4  C    0.000000   0.000000   0.000000   0.000000   0.000000
     5  C    0.000000   0.000000   0.000000   0.000000   0.000000
     6  C    0.000000   0.000000   0.000000   0.000000   0.000000
     7  C    0.000000   0.000000   0.000000   0.000000   0.000000
     8  H    0.000000   0.000000   0.000000   0.000000   0.000000
     9  H    0.000000   0.000000   0.000000   0.000000   0.000000
    10  H    0.000000   0.000000   0.000000   0.000000   0.000000
    11  H    0.000000   0.000000   0.000000   0.000000   0.000000
    12  H    0.000000   0.000000   0.000000   0.000000   0.000000
    13  C    4.002116   0.000000   0.000000   0.000000   0.000000
    14  H    0.000000   0.850122   0.000000   0.000000   0.000000
    15  H    0.000000   0.000000   0.842600   0.000000   0.000000
    16  H    0.000000   0.000000   0.000000   0.860283   0.000000
    17  H    0.000000   0.000000   0.000000   0.000000   0.864721
[...]
 om=AllCheck Guess=TCheck SCRF=Check GenChk RAM1/ZDO Freq\\Optimisation
 \\1,1\C,0.5371752749,1.3345807501,-0.0845463103\C,-0.8195858253,1.5668
 394674,-0.1123342311\C,-1.848260214,0.6537144815,0.1029959665\C,1.2178
 18329,0.0722871938,-0.0490336344\C,-1.7522009165,-0.733050845,0.344540
 9687\C,0.5600423285,-1.1480454489,-0.5967594748\C,-0.6916595931,-1.539
 8374239,0.0786314404\H,1.195420978,2.2335587961,-0.0590742645\H,-1.134
 3303971,2.6259134344,-0.2442225323\H,-2.8784636442,1.078048764,0.14879
 86496\H,-2.6660706277,-1.2050888236,0.7669257123\H,-0.778650094,-2.620
 5686987,0.3190220616\C,2.4912243716,0.0136742095,0.4121775617\H,3.0470
 042349,0.9101067188,0.7324642462\H,3.0406591896,-0.9381803003,0.496923
 999\H,0.3291207563,-0.9772556812,-1.692858884\H,1.287143849,-2.0104465
 939,-0.5651462747\\Version=EM64L-G16RevB.01\State=1-A\HF=0.3609883\RMS
 D=5.284e-10\RMSF=9.134e-06\ZeroPoint=0.1456734\Thermal=0.1526534\Dipol
 e=0.100333,0.1631567,0.1356057\DipoleDeriv=2.1746636,0.629657,0.131189
 ,-1.3494963,-0.1033721,-0.1906339,0.1170203,0.0432814,0.2968337,-2.763
 1762,-1.3175606,-0.1231255,-0.6634836,-0.7177834,-0.0408048,0.0876693,
 0.1247498,-0.3926632,1.1017917,0.5966429,0.0881288,1.4079152,1.8791167
 ,0.1636225,-0.1967969,-0.3037929,0.3020165,-1.7422725,0.0322919,-0.198
 0109,0.9753296,-0.1548653,0.2004628,-0.3850601,-0.0329538,-0.3045008,-
 0.0544818,0.8560044,0.0897963,-0.5514925,-1.9535708,-0.1973336,0.00595
 93,-0.0347055,-0.3991045,-0.113743,0.1075649,0.0439533,0.0257321,-0.11
 13465,0.0644912,-0.0899526,-0.1063887,-0.2732272,-0.0582795,-0.9634702
 ,-0.2212381,0.1054181,0.4548996,0.0146235,0.0287734,0.2711084,0.238396
 ,0.1195295,0.1287557,-0.0124913,0.1488313,0.2558039,-0.0092668,0.13126
 59,0.0341935,0.1363778,0.1011069,-0.0747257,0.0108312,-0.1168214,0.323
 2736,-0.0189316,-0.0269503,-0.0450248,0.1904245,0.3763186,-0.1045452,-
 0.0007049,-0.1246537,0.0957176,0.0130852,-0.0162232,-0.0438473,0.11877
 48,0.3018583,0.1218122,-0.0348519,0.1336768,0.1391822,-0.0136617,-0.06
 17372,0.0502524,0.2175373,0.0792717,0.0444192,0.0365314,0.0714797,0.37
 05493,-0.0058172,0.0414557,-0.0462732,0.1629135,0.9029402,0.0020594,0.
 1651942,0.0535685,-0.0017711,-0.0128063,0.2603253,-0.0210145,0.0514002
 ,0.2384267,0.0855715,0.0259094,0.1959889,0.1274567,0.0545427,0.0317369
 ,0.0404657,0.1514508,0.1991125,-0.0812184,0.0007881,-0.229635,0.140155
 4,-0.0567315,0.0574519,-0.0194166,0.1504582,0.0529148,0.0205794,0.0184
 325,-0.0276672,0.1005353,0.0223253,0.0327585,0.0575941,0.2374909,0.084
 0288,-0.0838666,-0.0203307,-0.0546945,0.1560238,0.0128288,-0.0176817,0
 .0317706,0.1154424\Polar=137.2620629,3.7939502,93.745714,6.669967,-0.2
 487524,27.6904901\HyperPolar=-461.357513,-36.9587674,18.1860034,347.47
 49738,49.6468836,47.8867907,2.3263482,12.0280166,25.5960044,7.0587099\
 PG=C01 [X(C8H9)]\NImag=0\\0.84173103,-0.08917758,0.66870471,0.02324705
 ,-0.00204476,0.17341779,-0.42301073,0.02940413,-0.00373613,0.83400083,
 0.10632780,-0.10158820,0.00310301,0.02961369,0.65689653,-0.01508928,0.
 00122119,-0.07340359,-0.02807575,-0.08237903,0.16091453,-0.09793776,-0
 .00881022,0.00256754,-0.24733321,-0.19052455,0.04734161,0.68100117,-0.
 08485345,0.03944021,-0.00446099,-0.09870218,-0.22801494,0.03224036,0.0
 6603822,0.78047449,0.01535777,-0.00403619,0.00546103,0.03452848,0.0382
 5275,-0.08389529,-0.06163369,-0.10287109,0.19585811,-0.08983912,0.0924
 4534,0.00455733,-0.07493764,0.02710294,-0.00268916,0.01412701,0.028896
 73,-0.00558682,0.82129013,0.10842510,-0.30670062,0.00401196,0.04781314
 ,-0.00415463,0.00360082,-0.00924870,-0.01675658,0.00269491,-0.03405713
 ,0.70591557,0.02015286,-0.00732359,-0.07275188,-0.02111186,-0.00440882
 ,0.01153435,0.00658667,0.01318081,-0.00627349,0.22585989,0.09148382,0.
 27357559,-0.02625847,0.01250695,-0.00267552,0.04046752,-0.01938013,-0.
 00133704,-0.08969132,-0.02564571,0.00615201,0.00986370,-0.00503340,0.0
 0510696,0.69483309,0.04823560,-0.02530422,0.00392043,-0.08761947,-0.06
 340061,0.01963025,0.05443652,-0.34399585,0.04415995,-0.01787947,0.0109
 7111,-0.00877177,-0.13843117,0.75697675,0.00115333,-0.00079084,-0.0035
 5614,0.00108927,0.01255390,0.00931265,-0.00595076,0.06578628,-0.089228
 59,-0.00045549,-0.00040836,0.00191366,-0.17906181,-0.05859901,0.224980
 37,0.00726023,0.00744080,0.00135909,-0.00031194,0.00062570,-0.00033911
 ,-0.00134642,-0.00146104,-0.00025289,-0.10534402,-0.08084012,-0.036124
 35,-0.04323957,0.00638526,0.02282850,0.62121821,-0.00432608,-0.0493991
 3,-0.01246111,-0.00065465,-0.00064116,-0.00122943,0.00065053,-0.000881
 11,-0.00060350,-0.08262889,-0.21758900,-0.07254732,0.01514399,0.010102
 34,-0.00854959,0.04397421,0.58180988,0.00208051,-0.00791738,0.00379601
 ,-0.00436299,-0.00140978,0.00238076,0.00078958,0.00654518,-0.00627081,
 -0.04099256,-0.07283536,-0.09605103,0.02626696,-0.00953965,-0.00096552
 ,-0.01346954,0.01529689,0.48095007,0.03018417,-0.01561242,0.00312247,-
 0.04333409,-0.01246658,0.00654323,0.01030876,0.08241313,-0.01266806,-0
 .04054807,-0.01936037,-0.00096298,-0.35204844,0.17147315,0.07983520,-0
 .24667457,-0.05422737,0.08394245,0.74032835,-0.01132596,0.00395602,-0.
 00123646,0.01643069,0.00364722,-0.00203227,0.03176669,-0.07431395,0.00
 149867,-0.02865266,-0.02039993,0.01014731,0.22349319,-0.22723928,-0.06
 038599,-0.05806247,-0.08599219,0.03190446,-0.15625162,0.68003831,-0.01
 029232,0.00478009,-0.00077493,0.01294913,0.00358621,-0.00475964,-0.007
 06698,-0.01389179,0.00991787,0.00156154,0.00017763,0.00668533,0.072092
 17,-0.04431106,-0.08869200,0.09770707,0.03078244,-0.11434937,-0.210619
 11,-0.03240612,0.27666888,-0.12546832,-0.12207228,-0.00434484,-0.03141
 660,-0.02219150,-0.00130296,-0.00404308,-0.00070141,-0.00022468,0.0061
 8992,0.00865627,0.00004575,-0.00042485,0.00108492,-0.00002130,-0.00090
 525,0.00136980,-0.00026857,0.00042297,-0.00024564,-0.00005929,0.157246
 72,-0.12539910,-0.20261564,-0.00380405,-0.00153917,0.00434465,-0.00064
 880,-0.00093513,-0.00409324,0.00059291,-0.00881379,-0.03701610,-0.0009
 1569,-0.00149091,0.00310819,0.00001167,0.00132370,-0.00162862,0.000552
 23,0.00199004,-0.00074092,-0.00048428,0.13222658,0.24026412,-0.0103542
 8,-0.00024663,-0.05034389,0.00564909,0.00036163,0.01100712,-0.00244347
 ,-0.00193714,0.00828114,0.00550588,-0.00419598,0.01229304,-0.00038490,
 0.00136755,-0.00032534,0.00023331,0.00184621,0.00154466,-0.00028695,-0
 .00040909,0.00048361,0.00562878,0.00405718,0.02297004,-0.02285053,0.03
 283408,-0.00342767,-0.05641789,0.06948317,-0.00959149,0.00313337,-0.02
 333433,0.00312683,-0.00230193,-0.00077591,0.00028683,-0.00220773,-0.00
 127315,0.00087827,-0.00000712,-0.00006396,-0.00001313,-0.00019193,0.00
 006812,0.00005650,-0.00152920,0.00061786,-0.00022930,0.08324681,0.0173
 9741,-0.01140757,0.00207305,0.06931643,-0.27000579,0.02746798,-0.00739
 632,-0.03619763,0.00680665,-0.00124489,0.00104684,0.00085105,-0.002120
 38,0.00096747,0.00083025,-0.00014152,0.00003864,-0.00000768,0.00057532
 ,-0.00018188,-0.00012761,0.00017743,0.00096140,-0.00044384,-0.07629370
 ,0.31546830,0.00010954,0.00124326,0.00632620,-0.01232984,0.02716931,-0
 .04719071,0.00273344,0.00884759,0.00549646,-0.00050404,0.00036346,0.00
 554399,0.00126386,-0.00065103,0.00453752,-0.00005175,0.00028220,-0.000
 02882,-0.00084333,0.00051828,0.00033661,-0.00005930,0.00012477,-0.0019
 9298,0.00882652,-0.03753480,0.02899969,-0.00406342,-0.00016351,0.00088
 187,-0.03157939,-0.00045584,0.00491548,-0.25600645,0.08976336,0.008342
 22,0.00174270,-0.00101205,0.00036534,-0.00416970,0.01058445,-0.0002223
 8,0.00015910,0.00008721,-0.00007353,-0.00100144,0.00043900,0.00064556,
 -0.00033561,-0.00007713,-0.00055845,-0.00044755,-0.00106548,0.00014327
 ,0.29589656,-0.00050302,-0.00228000,0.00141297,-0.01938074,0.00522986,
 0.00311752,0.09110822,-0.07286508,-0.00585289,-0.00071201,0.00029400,-
 0.00038533,0.02841760,-0.02316825,0.00262968,-0.00019930,0.00008084,0.
 00009196,0.00038591,-0.00333115,0.00153359,-0.00030274,0.00025368,-0.0
 0039786,-0.00151043,-0.00014092,-0.00006907,-0.09829587,0.09772734,0.0
 0309276,0.00090769,0.00659820,0.00305774,-0.00169297,0.01166910,0.0100
 0693,-0.00177893,-0.05272936,-0.00074394,0.00010564,-0.00097898,-0.000
 31974,0.00102717,0.01185510,-0.00004969,0.00032703,-0.00038710,-0.0008
 8607,0.00245410,0.00462942,0.00046757,0.00002939,-0.00191038,0.0002204
 7,-0.00003096,-0.00160768,-0.01386847,-0.00167942,0.02504493,-0.001995
 21,0.00107634,-0.00003447,0.00305953,0.00199132,0.00119479,-0.00042324
 ,-0.01261015,0.00436129,0.00132375,-0.00053748,0.00016197,-0.21368538,
 -0.08787197,0.07753678,0.00015524,0.00211152,0.00199748,-0.03525914,-0
 .00137376,0.01595960,-0.00005746,-0.00019723,-0.00023631,0.00019338,-0
 .00007387,0.00004399,0.00087812,0.00029104,-0.00068835,0.24791775,-0.0
 0079611,0.00042861,0.00010068,0.00271372,-0.00233400,0.00050058,-0.024
 78441,-0.03031251,0.01585283,0.00040407,-0.00033806,-0.00004981,-0.091
 55881,-0.08053733,0.04193440,0.00173843,-0.00125114,0.00050868,0.01514
 526,0.00710319,-0.00547545,-0.00004591,-0.00006049,-0.00005328,-0.0004
 5228,-0.00036781,-0.00013288,0.00000523,-0.00143817,0.00024310,0.09666
 605,0.10888227,-0.00097831,0.00046028,0.00016643,0.00145241,0.00112616
 ,0.00237961,0.00716144,0.00733876,0.00326657,0.00093839,0.00006858,-0.
 00019755,0.07546975,0.04517414,-0.08011176,0.00280090,0.00081829,0.006
 46470,0.01489666,-0.00134062,0.00057363,0.00000605,-0.00006776,-0.0002
 6294,0.00005464,0.00002674,-0.00009652,-0.00007692,0.00020030,-0.00074
 630,-0.09986728,-0.05237320,0.07058337,-0.00111997,0.00049509,0.000130
 53,0.00136852,0.00045308,-0.00041688,-0.00155762,0.00073863,0.00415554
 ,-0.00011223,-0.00032338,0.00142812,-0.00220247,0.02813391,0.00032825,
 -0.00837060,-0.02370012,0.01383366,-0.03784355,-0.02286146,-0.00121823
 ,-0.00000557,-0.00003835,-0.00021546,0.00002830,-0.00004318,-0.0001624
 5,-0.00002716,0.00018963,-0.00087403,-0.00084381,0.00101775,-0.0009779
 9,0.05401114,-0.00324463,0.00167505,-0.00012384,0.00462012,0.00152929,
 -0.00059966,0.00020636,-0.00599357,0.00231618,0.00192681,-0.00074834,0
 .00077764,0.00790292,-0.02370978,0.00326057,-0.01046414,-0.01244010,0.
 00987022,-0.01711870,-0.28695456,0.05193173,-0.00009655,-0.00020931,-0
 .00023523,0.00006117,-0.00015030,0.00002537,0.00012061,-0.00036184,-0.
 00006170,0.00066424,-0.00001901,-0.00107877,0.01761699,0.32700410,0.00
 115846,-0.00088669,0.00053628,-0.00156367,-0.00025681,-0.00043635,0.00
 452087,0.00193600,0.00747059,0.00260189,0.00074597,-0.00121068,0.00130
 776,-0.00425574,0.01064349,0.00908362,0.01603467,0.00605734,0.00058400
 ,0.05406626,-0.06080474,0.00004771,0.00009019,-0.00027047,-0.00004398,
 0.00000674,-0.00042285,-0.00031928,-0.00073952,-0.00166301,-0.00062753
 ,-0.00087864,-0.00210842,-0.01662065,-0.06582240,0.04237735,-0.0784688
 1,0.05849582,-0.01706164,0.02534716,0.00826940,-0.00091475,-0.00871406
 ,-0.01736542,0.00291216,-0.49935593,-0.00422966,-0.16170912,-0.0065751
 9,0.01179766,0.00047312,-0.04059657,-0.02103536,-0.02000726,0.00737577
 ,-0.00423625,-0.00424743,0.00064591,0.00158623,-0.00192832,-0.00056618
 ,0.00064249,0.00059301,-0.00084616,0.00043624,0.00047697,-0.00055280,-
 0.00023421,-0.00019339,-0.00058142,-0.00107033,-0.00004916,0.81591369,
 0.04069620,-0.01332876,0.01136788,0.00811469,-0.00182934,-0.00168280,-
 0.00286381,-0.00653452,0.00123549,0.02069196,-0.07716324,0.01074528,-0
 .00290415,0.00555439,0.00021291,-0.03467030,-0.00655448,-0.01549410,0.
 00293455,-0.00324312,-0.00301346,0.00175045,-0.00204745,0.00033829,0.0
 0060058,0.00005548,-0.00023347,-0.00003712,0.00010892,0.00035692,-0.00
 007746,0.00001432,-0.00011374,-0.00022896,-0.00013818,0.00045237,-0.03
 566733,0.57736920,-0.02100873,0.01410251,0.00012585,0.00688006,0.00178
 328,0.00272421,-0.00233004,-0.00432034,0.00090413,-0.16108635,0.001896
 96,-0.12394936,-0.00157459,0.00250678,0.00023963,-0.02421260,-0.011511
 44,-0.00476382,0.00155907,-0.00138022,-0.00097099,0.00034832,0.0006294
 7,-0.00145654,0.00000036,0.00016197,0.00020936,-0.00031808,0.00007793,
 -0.00022450,-0.00011331,-0.00002878,-0.00002674,-0.00029073,-0.0003123
 7,-0.00016706,0.24697841,0.04346148,0.24425764,-0.00475100,0.00169566,
 0.00052789,0.00282641,0.00070595,-0.00031425,-0.00103779,-0.00179090,0
 .00033212,-0.02314831,-0.02603882,-0.01477150,-0.00052969,0.00098379,0
 .00005094,-0.00098444,0.00147141,-0.00273529,0.00052981,-0.00016649,-0
 .00014799,-0.00053966,0.00089294,-0.00067433,-0.00000839,0.00010822,-0
 .00004839,-0.00013048,0.00007072,0.00005152,-0.00008077,-0.00003480,-0
 .00000407,-0.00008553,-0.00015916,-0.00016602,-0.10735221,-0.10948257,
 -0.03636490,0.12735413,-0.00256663,0.00326763,0.00047109,0.00237272,0.
 00043330,-0.00012867,-0.00089701,-0.00126112,0.00031290,-0.00174751,-0
 .00065733,-0.00210959,-0.00029919,0.00056736,0.00002428,0.00101981,0.0
 0030599,-0.00017302,0.00017235,0.00006742,0.00003187,0.00044995,-0.000
 10747,-0.00015295,-0.00000419,0.00015828,0.00000842,-0.00014966,0.0000
 6000,0.00003393,-0.00008983,-0.00005511,0.00002408,-0.00003237,-0.0001
 6558,-0.00018379,-0.11569983,-0.22278021,-0.06505833,0.12484080,0.2467
 4531,0.00042125,0.00096256,-0.00342576,0.00124544,-0.00011473,0.000170
 73,-0.00051786,-0.00148586,0.00019680,-0.01328992,-0.00948956,0.001575
 46,-0.00070705,0.00170365,-0.00009964,-0.00421975,-0.00184983,0.006797
 53,0.00093204,-0.00141479,-0.00130325,-0.00024642,0.00038129,0.0004050
 1,0.00004703,0.00010143,0.00023328,0.00001628,0.00000338,0.00004254,-0
 .00004118,-0.00003189,0.00001898,0.00002075,0.00003285,0.00049143,-0.0
 3719692,-0.06261830,-0.06808516,0.05473100,0.07480562,0.05267843,-0.00
 220935,0.00063699,-0.00417836,0.00048382,0.00042019,0.00078350,-0.0002
 1776,-0.00014859,-0.00011378,-0.02438119,0.02725616,-0.00917099,0.0001
 1996,0.00003020,0.00008669,-0.00137001,-0.00029997,0.00090153,-0.00016
 336,0.00001184,-0.00010539,0.00003524,0.00003599,-0.00001519,-0.000068
 58,0.00010940,0.00025836,-0.00008081,-0.00000065,-0.00011113,-0.000051
 03,-0.00005359,0.00003155,-0.00000922,-0.00008704,-0.00003649,-0.10544
 128,0.11405406,-0.00722649,0.00830143,-0.00742629,-0.00186845,0.125634
 90,0.00376908,-0.00311614,-0.00099827,-0.00402885,-0.00090630,0.000457
 44,0.00156999,0.00289276,-0.00062618,0.00486458,0.00176046,0.00087734,
 0.00105028,-0.00201969,0.00001740,-0.00039600,0.00033277,-0.00029259,-
 0.00117763,0.00043447,0.00037962,-0.00017742,-0.00005485,0.00030143,0.
 00001469,-0.00013758,0.00002000,0.00016081,-0.00008606,-0.00010253,0.0
 0012933,0.00006901,0.00001343,0.00000051,0.00027285,0.00008359,0.12076
 673,-0.24557408,0.02008180,0.00745322,-0.02643236,-0.00202910,-0.13365
 246,0.27264717,-0.00637563,0.00049065,0.00791567,0.00189836,0.00143784
 ,-0.00178239,-0.00059079,-0.00111206,0.00052458,-0.00844468,0.00736706
 ,0.00662666,-0.00029642,0.00039367,-0.00026335,0.00088736,0.00140677,-
 0.00276578,0.00019322,0.00011072,0.00031920,-0.00004667,-0.00025843,-0
 .00036848,-0.00019523,-0.00005818,-0.00047386,-0.00006186,0.00007985,0
 .00024395,-0.00003748,-0.00001666,0.00001010,-0.00001767,-0.00011448,-
 0.00012596,-0.00735790,0.01711926,-0.04830874,-0.00015529,-0.00769067,
 0.00997236,0.02150471,-0.01822948,0.02892272,-0.00090193,0.00065164,-0
 .00008817,0.00139956,0.00022080,-0.00079606,-0.00048625,-0.00201741,0.
 00158037,-0.00200181,-0.00577651,-0.01617188,-0.00286973,0.00224588,0.
 00005912,-0.04522540,0.00793401,-0.04198458,0.00169608,-0.00661629,0.0
 2469537,-0.00002768,0.00001616,-0.00003922,-0.00000432,-0.00000870,0.0
 0000406,0.00005307,0.00000285,0.00022426,-0.00030936,-0.00002334,-0.00
 102453,-0.00149404,-0.00060936,-0.00074918,-0.00041297,-0.00088590,-0.
 00063869,-0.00038859,-0.00007376,0.00067692,0.00017506,0.00003316,-0.0
 0037880,0.05589631,-0.00060518,-0.00002738,-0.00032010,0.00041167,0.00
 037561,0.00060222,0.00021246,0.00001944,-0.00001092,-0.01018895,-0.002
 28260,-0.02530741,0.00027020,-0.00031155,0.00030425,0.00914104,-0.0416
 0049,0.03707832,-0.00317513,0.00213410,0.00910613,-0.00008141,0.000016
 72,-0.00041232,0.00001346,-0.00006940,-0.00003641,0.00001806,-0.000061
 72,-0.00012796,-0.00001960,0.00000427,-0.00024767,-0.00044004,-0.00017
 177,-0.00055197,-0.00086591,-0.00174642,-0.00078750,-0.00069871,-0.000
 06834,0.00117837,0.00021859,0.00002652,-0.00041738,-0.00503746,0.05019
 599,-0.00130369,0.00042427,-0.00001837,0.00191276,0.00064820,-0.000440
 83,-0.00091409,-0.00316963,0.00063519,-0.01171651,-0.01173969,-0.02055
 726,-0.00227947,0.00410034,0.00026478,-0.04783378,0.03341915,-0.244083
 80,0.01718150,0.00856653,-0.02885972,-0.00010460,-0.00003258,-0.000142
 42,0.00000454,-0.00009329,0.00011658,0.00013822,-0.00001648,0.00011925
 ,0.00019395,0.00013995,0.00032985,0.00043925,0.00010889,-0.00033984,-0
 .00021037,-0.00062787,-0.00027879,-0.00034014,-0.00020606,0.00034717,-
 0.00002301,0.00020051,-0.00017564,0.05272761,-0.04006618,0.30072804,-0
 .00030090,-0.00184648,-0.00084614,-0.00061300,-0.00019555,0.00008767,0
 .00022518,0.00078141,-0.00036836,0.00743284,-0.00491679,0.00002875,-0.
 00138089,-0.00231691,0.00139227,-0.13441644,0.11419357,-0.00590464,-0.
 03378219,0.01758334,0.00808954,0.00021257,-0.00019873,0.00034889,-0.00
 000044,0.00006127,0.00002296,-0.00004149,0.00000238,-0.00005687,-0.000
 26957,0.00029287,0.00031068,-0.00115490,-0.00026936,0.00087133,0.00018
 130,-0.00202500,-0.00060185,0.00002520,0.00013041,-0.00000321,-0.00075
 773,-0.00037993,-0.00052568,-0.00509792,0.01082667,-0.00787219,0.16973
 850,-0.00205257,-0.00170484,-0.00101128,0.00111371,0.00041821,-0.00013
 754,-0.00052885,-0.00160600,0.00027710,0.00959213,-0.03618118,-0.00624
 384,-0.00192009,0.00143657,0.00116759,0.11458590,-0.17469315,0.0058210
 1,0.00429896,0.00501707,-0.00259848,0.00019941,-0.00037445,0.00021240,
 0.00001461,-0.00003747,0.00005501,0.00007785,-0.00002135,-0.00001068,-
 0.00007868,0.00021221,-0.00002927,-0.00097775,0.00058128,0.00015989,-0
 .00158984,-0.00216244,-0.00130314,0.00014885,-0.00007770,-0.00013538,-
 0.00110467,-0.00010909,-0.00050846,0.00994437,-0.00643284,0.00834411,-
 0.13172329,0.21573523,-0.00137116,-0.00134630,-0.00007116,0.00051780,0
 .00023953,-0.00018286,-0.00026034,-0.00084766,0.00038436,0.00448317,-0
 .01384797,0.00222268,0.00097612,0.00214509,-0.00050500,-0.00834645,0.0
 0853876,-0.03832426,0.01747767,-0.00866119,0.00089951,0.00013440,-0.00
 025748,0.00008967,-0.00000124,-0.00002942,0.00001399,0.00005088,-0.000
 00647,0.00004553,0.00019589,-0.00023975,-0.00024317,0.00045801,0.00002
 502,-0.00002712,-0.00055649,-0.00150593,-0.00022992,0.00002887,-0.0000
 0900,-0.00001637,-0.00071732,-0.00015463,-0.00027033,-0.01809648,0.020
 01661,-0.00764433,0.00502689,-0.00405914,0.04385881\\-0.00000193,0.000
 00889,0.00000177,-0.00001013,-0.00002261,-0.00000458,-0.00001302,0.000
 01873,0.00000159,0.00000692,-0.00000446,-0.00000915,0.00000567,0.00000
 392,-0.00000175,-0.00000297,0.00001626,0.00003752,-0.00000628,-0.00000
 337,0.00000252,-0.00000480,-0.00000221,0.00000845,0.00000268,0.0000005
 4,-0.00000867,0.00001066,-0.00000410,0.00000496,0.00000315,-0.00000188
 ,-0.00000014,-0.00000410,0.00000248,-0.00000320,0.00000309,-0.00000813
 ,-0.00000789,-0.00000188,-0.00000697,0.00000311,0.00000074,0.00000655,
 -0.00000140,0.00000976,-0.00000752,-0.00001072,0.00000244,0.00000388,-
 0.00001242\\\@


 LET US LEARN TO DREAM, GENTLEMEN, THEN PERHAPS WE SHALL
 DISCOVER THE TRUTH;  BUT LET US BEWARE OF PUBLISHING
 OUR DREAMS ABROAD BEFORE THEY HAVE BEEN SCRUTINIZED
 BY OUR VIGILANT INTELLECT ... LET US ALWAYS ALLOW
 THE FRUIT TO HANG UNTIL IT IS RIPE.  UNRIPE FRUIT
 BRINGS EVEN THE GROWER BUT LITTLE PROFIT; IT DAMAGES
 THE HEALTH OF THOSE WHO CONSUME IT; IT ENDANGERS
 PARTICULARLY THE YOUTH WHO CANNOT YET DISTINGUISH
 BETWEEN RIPE AND UNRIPE FRUIT.

                                  -- KEKULE, 1890
 Job cpu time:       0 days  0 hours  0 minutes  0.6 seconds.
 Elapsed time:       0 days  0 hours  0 minutes  0.5 seconds.
 File lengths (MBytes):  RWF=     15 Int=      0 D2E=      0 Chk=      2 Scr=      1
 Normal termination of Gaussian 16 at Thu Jun 12 22:42:12 2025.
