 Entering Gaussian System, Link 0=g16
 Input=/home/gaussian/Documents/program files/Aromaticity/AM1 HF3-21G*/cycloheptatrienyl_cation/opt freq/cycloheptatrienyl_cation_opt.com
 Output=/home/gaussian/Documents/program files/Aromaticity/AM1 HF3-21G*/cycloheptatrienyl_cation/opt freq/cycloheptatrienyl_cation_opt.log
 Initial command:
 /usr/local/g16/l1.exe "/home/gaussian/tmp/Gau-143179.inp" -scrdir="/home/gaussian/tmp/"
 Entering Link 1 = /usr/local/g16/l1.exe PID=    143182.
  
 Copyright (c) 1988-2017, Gaussian, Inc.  All Rights Reserved.
  
 This is part of the Gaussian(R) 16 program.  It is based on
 the Gaussian(R) 09 system (copyright 2009, Gaussian, Inc.),
 the Gaussian(R) 03 system (copyright 2003, Gaussian, Inc.),
 the Gaussian(R) 98 system (copyright 1998, Gaussian, Inc.),
 the Gaussian(R) 94 system (copyright 1995, Gaussian, Inc.),
 the Gaussian 92(TM) system (copyright 1992, Gaussian, Inc.),
 the Gaussian 90(TM) system (copyright 1990, Gaussian, Inc.),
 the Gaussian 88(TM) system (copyright 1988, Gaussian, Inc.),
 the Gaussian 86(TM) system (copyright 1986, Carnegie Mellon
 University), and the Gaussian 82(TM) system (copyright 1983,
 Carnegie Mellon University). Gaussian is a federally registered
 trademark of Gaussian, Inc.
  
 This software contains proprietary and confidential information,
 including trade secrets, belonging to Gaussian, Inc.
  
 This software is provided under written license and may be
 used, copied, transmitted, or stored only in accord with that
 written license.
  
 The following legend is applicable only to US Government
 contracts under FAR:
  
                    RESTRICTED RIGHTS LEGEND
  
 Use, reproduction and disclosure by the US Government is
 subject to restrictions as set forth in subparagraphs (a)
 and (c) of the Commercial Computer Software - Restricted
 Rights clause in FAR 52.227-19.
  
 Gaussian, Inc.
 340 Quinnipiac St., Bldg. 40, Wallingford CT 06492
  
  
 ---------------------------------------------------------------
 Warning -- This program may not be used in any manner that
 competes with the business of Gaussian, Inc. or will provide
 assistance to any competitor of Gaussian, Inc.  The licensee
 of this program is prohibited from giving any competitor of
 Gaussian, Inc. access to this program.  By using this program,
 the user acknowledges that Gaussian, Inc. is engaged in the
 business of creating and licensing software in the field of
 computational chemistry and represents and warrants to the
 licensee that it is not a competitor of Gaussian, Inc. and that
 it will not use this program in any manner prohibited above.
 ---------------------------------------------------------------
  

 Cite this work as:
 Gaussian 16, Revision B.01,
 M. J. Frisch, G. W. Trucks, H. B. Schlegel, G. E. Scuseria, 
 M. A. Robb, J. R. Cheeseman, G. Scalmani, V. Barone, 
 G. A. Petersson, H. Nakatsuji, X. Li, M. Caricato, A. V. Marenich, 
 J. Bloino, B. G. Janesko, R. Gomperts, B. Mennucci, H. P. Hratchian, 
 J. V. Ortiz, A. F. Izmaylov, J. L. Sonnenberg, D. Williams-Young, 
 F. Ding, F. Lipparini, F. Egidi, J. Goings, B. Peng, A. Petrone, 
 T. Henderson, D. Ranasinghe, V. G. Zakrzewski, J. Gao, N. Rega, 
 G. Zheng, W. Liang, M. Hada, M. Ehara, K. Toyota, R. Fukuda, 
 J. Hasegawa, M. Ishida, T. Nakajima, Y. Honda, O. Kitao, H. Nakai, 
 T. Vreven, K. Throssell, J. A. Montgomery, Jr., J. E. Peralta, 
 F. Ogliaro, M. J. Bearpark, J. J. Heyd, E. N. Brothers, K. N. Kudin, 
 V. N. Staroverov, T. A. Keith, R. Kobayashi, J. Normand, 
 K. Raghavachari, A. P. Rendell, J. C. Burant, S. S. Iyengar, 
 J. Tomasi, M. Cossi, J. M. Millam, M. Klene, C. Adamo, R. Cammi, 
 J. W. Ochterski, R. L. Martin, K. Morokuma, O. Farkas, 
 J. B. Foresman, and D. J. Fox, Gaussian, Inc., Wallingford CT, 2016.
 
 ******************************************
 Gaussian 16:  EM64L-G16RevB.01 20-Dec-2017
                12-Jun-2025 
 ******************************************
 %chk=cycloheptatrienyl_cation_opt.chk
 -----------------------------------------
 # opt freq am1 pop=full geom=connectivity
 -----------------------------------------
 1/18=20,19=15,26=1,38=1,57=2/1,3;
 2/9=110,12=2,17=6,18=5,40=1/2;
 3/5=2,25=1,41=700000,71=1/1,2,3;
 4/35=1/1;
 5/5=2,35=1,38=5/2;
 6/7=3,28=1/1;
 7//1,2,3,16;
 1/18=20,19=15,26=1/3(2);
 2/9=110/2;
 99//99;
 2/9=110/2;
 3/5=2,25=1,41=700000,71=1,135=20/1,2,3;
 4/5=5,16=3,35=1/1;
 5/5=2,35=1,38=5/2;
 7//1,2,3,16;
 1/18=20,19=15,26=1/3(-5);
 2/9=110/2;
 6/7=3,19=2,28=1/1;
 99/9=1/99;
 ------------
 Optimisation
 ------------
 Symbolic Z-matrix:
 Charge =  1 Multiplicity = 1
 C                     0.53118   1.23052  -0.00008 
 C                    -0.8089    1.54623   0.00014 
 C                    -1.91187   0.70026  -0.0001 
 C                     1.15596  -0.01713  -0.00066 
 C                    -1.92436  -0.67511   0.00015 
 C                     0.51209  -1.25081  -0.00025 
 C                    -0.83712  -1.5391    0.00018 
 H                     1.19767   2.07299  -0.00012 
 H                    -1.03447   2.59581   0.00028 
 H                    -2.87029   1.18309  -0.00041 
 H                    -2.89119  -1.14066   0.00039 
 H                     1.15823  -2.10732  -0.00051 
 H                    -1.08153  -2.58455   0.00019 
 C                     2.6755   -0.00333   0.00018 
 H                     3.042     0.52767  -0.87148 
 H                     3.03978   0.5061    0.88577 
 H                     3.08487  -1.00231  -0.01145 
 

 GradGradGradGradGradGradGradGradGradGradGradGradGradGradGradGradGradGrad
 Berny optimization.
 Initialization pass.
                           ----------------------------
                           !    Initial Parameters    !
                           ! (Angstroms and Degrees)  !
 --------------------------                            --------------------------
 ! Name  Definition              Value          Derivative Info.                !
 --------------------------------------------------------------------------------
 ! R1    R(1,2)                  1.3768         estimate D2E/DX2                !
 ! R2    R(1,4)                  1.3953         estimate D2E/DX2                !
 ! R3    R(1,8)                  1.0742         estimate D2E/DX2                !
 ! R4    R(2,3)                  1.39           estimate D2E/DX2                !
 ! R5    R(2,9)                  1.0735         estimate D2E/DX2                !
 ! R6    R(3,5)                  1.3754         estimate D2E/DX2                !
 ! R7    R(3,10)                 1.0732         estimate D2E/DX2                !
 ! R8    R(4,6)                  1.3916         estimate D2E/DX2                !
 ! R9    R(4,14)                 1.5196         estimate D2E/DX2                !
 ! R10   R(5,7)                  1.3887         estimate D2E/DX2                !
 ! R11   R(5,11)                 1.0731         estimate D2E/DX2                !
 ! R12   R(6,7)                  1.3797         estimate D2E/DX2                !
 ! R13   R(6,12)                 1.0729         estimate D2E/DX2                !
 ! R14   R(7,13)                 1.0736         estimate D2E/DX2                !
 ! R15   R(14,15)                1.0845         estimate D2E/DX2                !
 ! R16   R(14,16)                1.0847         estimate D2E/DX2                !
 ! R17   R(14,17)                1.0797         estimate D2E/DX2                !
 ! A1    A(2,1,4)              129.8567         estimate D2E/DX2                !
 ! A2    A(2,1,8)              115.0916         estimate D2E/DX2                !
 ! A3    A(4,1,8)              115.0516         estimate D2E/DX2                !
 ! A4    A(1,2,3)              129.2557         estimate D2E/DX2                !
 ! A5    A(1,2,9)              115.386          estimate D2E/DX2                !
 ! A6    A(3,2,9)              115.3583         estimate D2E/DX2                !
 ! A7    A(2,3,5)              128.0076         estimate D2E/DX2                !
 ! A8    A(2,3,10)             115.7745         estimate D2E/DX2                !
 ! A9    A(5,3,10)             116.2179         estimate D2E/DX2                !
 ! A10   A(1,4,6)              125.8392         estimate D2E/DX2                !
 ! A11   A(1,4,14)             116.0798         estimate D2E/DX2                !
 ! A12   A(6,4,14)             118.081          estimate D2E/DX2                !
 ! A13   A(3,5,7)              127.9529         estimate D2E/DX2                !
 ! A14   A(3,5,11)             116.2315         estimate D2E/DX2                !
 ! A15   A(7,5,11)             115.8156         estimate D2E/DX2                !
 ! A16   A(4,6,7)              129.6222         estimate D2E/DX2                !
 ! A17   A(4,6,12)             115.4092         estimate D2E/DX2                !
 ! A18   A(7,6,12)             114.9686         estimate D2E/DX2                !
 ! A19   A(5,7,6)              129.4656         estimate D2E/DX2                !
 ! A20   A(5,7,13)             115.3141         estimate D2E/DX2                !
 ! A21   A(6,7,13)             115.2203         estimate D2E/DX2                !
 ! A22   A(4,14,15)            109.9951         estimate D2E/DX2                !
 ! A23   A(4,14,16)            109.9101         estimate D2E/DX2                !
 ! A24   A(4,14,17)            111.7613         estimate D2E/DX2                !
 ! A25   A(15,14,16)           108.227          estimate D2E/DX2                !
 ! A26   A(15,14,17)           108.4365         estimate D2E/DX2                !
 ! A27   A(16,14,17)           108.4225         estimate D2E/DX2                !
 ! D1    D(4,1,2,3)              0.0028         estimate D2E/DX2                !
 ! D2    D(4,1,2,9)           -179.9801         estimate D2E/DX2                !
 ! D3    D(8,1,2,3)            179.9812         estimate D2E/DX2                !
 ! D4    D(8,1,2,9)             -0.0017         estimate D2E/DX2                !
 ! D5    D(2,1,4,6)             -0.0463         estimate D2E/DX2                !
 ! D6    D(2,1,4,14)          -179.9609         estimate D2E/DX2                !
 ! D7    D(8,1,4,6)            179.9753         estimate D2E/DX2                !
 ! D8    D(8,1,4,14)             0.0607         estimate D2E/DX2                !
 ! D9    D(1,2,3,5)              0.0418         estimate D2E/DX2                !
 ! D10   D(1,2,3,10)          -179.9663         estimate D2E/DX2                !
 ! D11   D(9,2,3,5)           -179.9753         estimate D2E/DX2                !
 ! D12   D(9,2,3,10)             0.0166         estimate D2E/DX2                !
 ! D13   D(2,3,5,7)             -0.028          estimate D2E/DX2                !
 ! D14   D(2,3,5,11)           179.9701         estimate D2E/DX2                !
 ! D15   D(10,3,5,7)           179.9801         estimate D2E/DX2                !
 ! D16   D(10,3,5,11)           -0.0218         estimate D2E/DX2                !
 ! D17   D(1,4,6,7)              0.0326         estimate D2E/DX2                !
 ! D18   D(1,4,6,12)          -179.9815         estimate D2E/DX2                !
 ! D19   D(14,4,6,7)           179.9457         estimate D2E/DX2                !
 ! D20   D(14,4,6,12)           -0.0684         estimate D2E/DX2                !
 ! D21   D(1,4,14,15)          -58.86           estimate D2E/DX2                !
 ! D22   D(1,4,14,16)           60.2047         estimate D2E/DX2                !
 ! D23   D(1,4,14,17)         -179.3652         estimate D2E/DX2                !
 ! D24   D(6,4,14,15)          121.2184         estimate D2E/DX2                !
 ! D25   D(6,4,14,16)         -119.7168         estimate D2E/DX2                !
 ! D26   D(6,4,14,17)            0.7132         estimate D2E/DX2                !
 ! D27   D(3,5,7,6)             -0.0118         estimate D2E/DX2                !
 ! D28   D(3,5,7,13)          -179.9873         estimate D2E/DX2                !
 ! D29   D(11,5,7,6)           179.9901         estimate D2E/DX2                !
 ! D30   D(11,5,7,13)            0.0145         estimate D2E/DX2                !
 ! D31   D(4,6,7,5)              0.0093         estimate D2E/DX2                !
 ! D32   D(4,6,7,13)           179.9848         estimate D2E/DX2                !
 ! D33   D(12,6,7,5)          -179.9767         estimate D2E/DX2                !
 ! D34   D(12,6,7,13)           -0.0012         estimate D2E/DX2                !
 --------------------------------------------------------------------------------
 Trust Radius=3.00D-01 FncErr=1.00D-07 GrdErr=1.00D-07 EigMax=2.50D+02 EigMin=1.00D-04
 Number of steps in this run=     88 maximum allowed number of steps=    102.
 GradGradGradGradGradGradGradGradGradGradGradGradGradGradGradGradGradGrad

                          Input orientation:                          
 ---------------------------------------------------------------------
 Center     Atomic      Atomic             Coordinates (Angstroms)
 Number     Number       Type             X           Y           Z
 ---------------------------------------------------------------------
      1          6           0        0.531176    1.230523   -0.000079
      2          6           0       -0.808895    1.546231    0.000144
      3          6           0       -1.911874    0.700262   -0.000103
      4          6           0        1.155959   -0.017133   -0.000664
      5          6           0       -1.924355   -0.675113    0.000153
      6          6           0        0.512088   -1.250805   -0.000251
      7          6           0       -0.837115   -1.539102    0.000183
      8          1           0        1.197670    2.072992   -0.000120
      9          1           0       -1.034469    2.595809    0.000280
     10          1           0       -2.870288    1.183086   -0.000412
     11          1           0       -2.891188   -1.140658    0.000386
     12          1           0        1.158226   -2.107322   -0.000510
     13          1           0       -1.081529   -2.584553    0.000191
     14          6           0        2.675504   -0.003333    0.000176
     15          1           0        3.042002    0.527668   -0.871483
     16          1           0        3.039780    0.506100    0.885770
     17          1           0        3.084874   -1.002307   -0.011451
 ---------------------------------------------------------------------
                    Distance matrix (angstroms):
                    1          2          3          4          5
     1  C    0.000000
     2  C    1.376758   0.000000
     3  C    2.499934   1.390045   0.000000
     4  C    1.395349   2.510928   3.150596   0.000000
     5  C    3.108228   2.485683   1.375432   3.149805   0.000000
     6  C    2.481401   3.093284   3.111632   1.391588   2.503533
     7  C    3.089182   3.085462   2.483920   2.507735   1.388729
     8  H    1.074229   2.074555   3.399066   2.090541   4.159221
     9  H    2.077318   1.073544   2.088765   3.409610   3.389812
    10  H    3.401795   2.093135   1.073162   4.201332   2.085112
    11  H    4.163541   3.399311   2.085196   4.200203   1.073079
    12  H    3.396233   4.149460   4.160294   2.090190   3.399048
    13  H    4.141935   4.139771   3.388138   3.405583   2.087179
    14  C    2.473973   3.813422   4.641022   1.519608   4.648655
    15  H    2.749108   4.077574   5.032890   2.147625   5.183737
    16  H    2.757283   4.083933   5.034019   2.146700   5.179017
    17  H    3.392202   4.653667   5.278860   2.165963   5.019917
                    6          7          8          9         10
     6  C    0.000000
     7  C    1.379661   0.000000
     8  H    3.393766   4.145790   0.000000
     9  H    4.145875   4.139618   2.292549   0.000000
    10  H    4.167048   3.397661   4.164158   2.316467   0.000000
    11  H    3.405058   2.092361   5.200606   4.172360   2.323838
    12  H    1.072901   2.074671   4.180500   5.189157   5.201510
    13  H    2.078100   1.073641   5.185313   5.180576   4.170703
    14  C    2.497310   3.833677   2.548552   4.529839   5.671278
    15  H    3.212861   4.480947   2.559074   4.653471   6.011947
    16  H    3.203276   4.471849   2.575523   4.663741   6.014361
    17  H    2.584783   3.958571   3.608203   5.469512   6.343502
                   11         12         13         14         15
    11  H    0.000000
    12  H    4.163195   0.000000
    13  H    2.315102   2.290033   0.000000
    14  C    5.681687   2.594013   4.558288   0.000000
    15  H    6.224645   3.354158   5.239203   1.084469   0.000000
    16  H    6.218689   3.340017   5.227004   1.084664   1.757387
    17  H    5.977675   2.221070   4.456742   1.079661   1.755653
                   16         17
    16  H    0.000000
    17  H    1.755657   0.000000
 Stoichiometry    C8H9(1+)
 Framework group  C1[X(C8H9)]
 Deg. of freedom    45
 Full point group                 C1      NOp   1
 Largest Abelian subgroup         C1      NOp   1
 Largest concise Abelian subgroup C1      NOp   1
                         Standard orientation:                         
 ---------------------------------------------------------------------
 Center     Atomic      Atomic             Coordinates (Angstroms)
 Number     Number       Type             X           Y           Z
 ---------------------------------------------------------------------
      1          6           0       -0.531176   -1.230523   -0.000079
      2          6           0        0.808895   -1.546231    0.000144
      3          6           0        1.911874   -0.700262   -0.000103
      4          6           0       -1.155959    0.017133   -0.000664
      5          6           0        1.924355    0.675113    0.000153
      6          6           0       -0.512088    1.250805   -0.000251
      7          6           0        0.837115    1.539102    0.000183
      8          1           0       -1.197670   -2.072992   -0.000120
      9          1           0        1.034469   -2.595809    0.000280
     10          1           0        2.870288   -1.183086   -0.000412
     11          1           0        2.891188    1.140658    0.000386
     12          1           0       -1.158226    2.107322   -0.000510
     13          1           0        1.081529    2.584553    0.000191
     14          6           0       -2.675504    0.003333    0.000176
     15          1           0       -3.042002   -0.527668   -0.871483
     16          1           0       -3.039780   -0.506100    0.885770
     17          1           0       -3.084874    1.002307   -0.011451
 ---------------------------------------------------------------------
 Rotational constants (GHZ):           3.7834360           1.9108907           1.2796441
 Standard basis: VSTO-6G (5D, 7F)
 There are    41 symmetry adapted cartesian basis functions of A   symmetry.
 There are    41 symmetry adapted basis functions of A   symmetry.
    41 basis functions,   246 primitive gaussians,    41 cartesian basis functions
    20 alpha electrons       20 beta electrons
       nuclear repulsion energy       191.8062077262 Hartrees.
 Integral buffers will be    131072 words long.
 Regular integral format.
 Two-electron integral symmetry is turned off.
 Do NDO integrals.
 One-electron integrals computed using PRISM.
 NBasis=    41 RedAO= F EigKep=  0.00D+00  NBF=    41
 NBsUse=    41 1.00D-04 EigRej=  0.00D+00 NBFU=    41
 Simple Huckel Guess.
 Keep J ints in memory in canonical form, NReq=863514.
 Overlap will be assumed to be unity.
 Requested convergence on RMS density matrix=1.00D-08 within 128 cycles.
 Requested convergence on MAX density matrix=1.00D-06.
 Requested convergence on             energy=1.00D-06.
 No special actions if energy rises.
 SCF Done:  E(RAM1) =  0.330829641371     A.U. after   13 cycles
            NFock= 12  Conv=0.58D-08     -V/T= 1.0052

 **********************************************************************

            Population analysis using the SCF Density.

 **********************************************************************

 Orbital symmetries:
       Occupied  (A) (A) (A) (A) (A) (A) (A) (A) (A) (A) (A) (A)
                 (A) (A) (A) (A) (A) (A) (A) (A)
       Virtual   (A) (A) (A) (A) (A) (A) (A) (A) (A) (A) (A) (A)
                 (A) (A) (A) (A) (A) (A) (A) (A) (A)
 The electronic state is 1-A.
 Alpha  occ. eigenvalues --   -1.64345  -1.47452  -1.43445  -1.25577  -1.15670
 Alpha  occ. eigenvalues --   -1.08756  -0.89401  -0.88078  -0.83967  -0.75228
 Alpha  occ. eigenvalues --   -0.73322  -0.71235  -0.69149  -0.67973  -0.65546
 Alpha  occ. eigenvalues --   -0.63613  -0.63283  -0.63073  -0.58040  -0.56189
 Alpha virt. eigenvalues --   -0.23002  -0.22628  -0.10480  -0.10178  -0.05155
 Alpha virt. eigenvalues --   -0.04830  -0.04413  -0.04340  -0.04212  -0.04078
 Alpha virt. eigenvalues --   -0.02809  -0.00432   0.00078   0.00426   0.01079
 Alpha virt. eigenvalues --    0.01241   0.01448   0.01540   0.01548   0.02339
 Alpha virt. eigenvalues --    0.03964
     Molecular Orbital Coefficients:
                           1         2         3         4         5
                           O         O         O         O         O
     Eigenvalues --    -1.64345  -1.47452  -1.43445  -1.25577  -1.15670
   1 1   C  1S          0.35971   0.20850   0.37188  -0.23725   0.38015
   2        1PX         0.04580  -0.11590   0.10682  -0.13327  -0.09257
   3        1PY         0.07834   0.09331  -0.04583   0.04408  -0.01202
   4        1PZ        -0.00002  -0.00003   0.00000  -0.00001  -0.00003
   5 2   C  1S          0.33647  -0.15816   0.46485  -0.20030  -0.16905
   6        1PX        -0.02566  -0.12850  -0.04842   0.15830  -0.26931
   7        1PY         0.08775  -0.05123   0.03048   0.03544  -0.03086
   8        1PZ        -0.00003   0.00001  -0.00003   0.00002   0.00000
   9 3   C  1S          0.32750  -0.40926   0.20565   0.26845  -0.31401
  10        1PX        -0.08139   0.02189  -0.08519   0.08688   0.03621
  11        1PY         0.04049  -0.07577  -0.12920   0.12246   0.18622
  12        1PZ         0.00002  -0.00003   0.00001   0.00002  -0.00000
  13 4   C  1S          0.39054   0.45439  -0.00611   0.10281  -0.00853
  14        1PX         0.06917  -0.04986  -0.00248  -0.25239  -0.00239
  15        1PY        -0.00148  -0.00320  -0.17280  -0.00501  -0.30157
  16        1PZ         0.00010   0.00012   0.00001   0.00007   0.00002
  17 5   C  1S          0.32732  -0.41265  -0.19805   0.27576   0.30256
  18        1PX        -0.08206   0.02486   0.08283   0.08287  -0.03934
  19        1PY        -0.03913   0.07313  -0.13218  -0.11933   0.19568
  20        1PZ        -0.00002   0.00001  -0.00000  -0.00001   0.00003
  21 6   C  1S          0.35784   0.20076  -0.37786  -0.24497  -0.37767
  22        1PX         0.04438  -0.11774  -0.10494  -0.12818   0.10121
  23        1PY        -0.07957  -0.09185  -0.04060  -0.03970  -0.00560
  24        1PZ         0.00001  -0.00003  -0.00002  -0.00001   0.00005
  25 7   C  1S          0.33563  -0.16637  -0.46243  -0.19176   0.18461
  26        1PX        -0.02660  -0.12673   0.05150   0.16217   0.26422
  27        1PY        -0.08704   0.05418   0.02841  -0.03929  -0.03202
  28        1PZ        -0.00003  -0.00001   0.00004   0.00004   0.00005
  29 8   H  1S          0.10323   0.08231   0.12943  -0.06282   0.18284
  30 9   H  1S          0.09263  -0.05049   0.16069  -0.07755  -0.07943
  31 10  H  1S          0.08927  -0.13368   0.07106   0.11432  -0.14866
  32 11  H  1S          0.08920  -0.13477  -0.06843   0.11732   0.14316
  33 12  H  1S          0.10250   0.07891  -0.13176  -0.06725  -0.18153
  34 13  H  1S          0.09245  -0.05327  -0.16002  -0.07425   0.08675
  35 14  C  1S          0.16463   0.34153  -0.00074   0.52893  -0.00058
  36        1PX         0.06949   0.09798  -0.00022   0.02092  -0.00003
  37        1PY        -0.00014  -0.00055  -0.02811  -0.00201  -0.06987
  38        1PZ        -0.00001  -0.00001   0.00000   0.00007   0.00000
  39 15  H  1S          0.05500   0.11737   0.00738   0.20211   0.01943
  40 16  H  1S          0.05499   0.11737   0.00706   0.20215   0.01862
  41 17  H  1S          0.05559   0.11753  -0.01525   0.20035  -0.03846
                           6         7         8         9        10
                           O         O         O         O         O
     Eigenvalues --    -1.08756  -0.89401  -0.88078  -0.83967  -0.75228
   1 1   C  1S         -0.07466  -0.10021   0.22905   0.02396   0.04569
   2        1PX         0.14857   0.30728  -0.02214   0.21015   0.24078
   3        1PY        -0.21545  -0.16972  -0.29385   0.07657   0.23568
   4        1PZ         0.00010   0.00015   0.00004   0.00008  -0.00001
   5 2   C  1S          0.30938   0.20507  -0.14360  -0.04643   0.02063
   6        1PX        -0.00351  -0.22181  -0.26210  -0.17191  -0.10788
   7        1PY        -0.10368  -0.14591  -0.08883   0.30300   0.42760
   8        1PZ         0.00002   0.00008   0.00000  -0.00001  -0.00008
   9 3   C  1S         -0.13562  -0.26899   0.07116  -0.00940   0.02974
  10        1PX        -0.11403  -0.07339   0.27074  -0.26113  -0.18346
  11        1PY        -0.18559   0.14398   0.24536   0.26884   0.01831
  12        1PZ         0.00001   0.00007  -0.00004   0.00005   0.00002
  13 4   C  1S         -0.33321  -0.00471  -0.26706  -0.16511   0.00091
  14        1PX        -0.20560  -0.00047  -0.03533   0.15320  -0.00160
  15        1PY         0.00423   0.38304  -0.00853  -0.00024  -0.06966
  16        1PZ         0.00001  -0.00004  -0.00008   0.00008  -0.00002
  17 5   C  1S         -0.14630   0.27241   0.05893  -0.00791  -0.02943
  18        1PX        -0.11029   0.08824   0.26238  -0.26480   0.18196
  19        1PY         0.18113   0.13367  -0.25610  -0.26337   0.01925
  20        1PZ         0.00003   0.00006  -0.00006  -0.00006   0.00002
  21 6   C  1S         -0.06093   0.10899   0.22292   0.02508  -0.04539
  22        1PX         0.15201  -0.31423  -0.00161   0.20587  -0.23911
  23        1PY         0.21546  -0.14843   0.30258  -0.07954   0.23985
  24        1PZ         0.00009  -0.00016  -0.00000   0.00009  -0.00009
  25 7   C  1S          0.30714  -0.21104  -0.13310  -0.04731  -0.02180
  26        1PX        -0.01248   0.21086  -0.26892  -0.17652   0.11975
  27        1PY         0.10586  -0.14375   0.10180  -0.29990   0.42328
  28        1PZ         0.00001   0.00002  -0.00007  -0.00004   0.00004
  29 8   H  1S          0.01649  -0.08081   0.25159  -0.10550  -0.21435
  30 9   H  1S          0.17559   0.14714  -0.04410  -0.23243  -0.29959
  31 10  H  1S         -0.06307  -0.19597   0.11094  -0.22843  -0.10593
  32 11  H  1S         -0.06859   0.20169   0.10181  -0.22677   0.10615
  33 12  H  1S          0.02389   0.09355   0.24812  -0.10299   0.21606
  34 13  H  1S          0.17454  -0.14736  -0.03561  -0.23280   0.29829
  35 14  C  1S          0.40169   0.00430   0.03951   0.11892  -0.00093
  36        1PX        -0.13225  -0.00679  -0.11538  -0.21096  -0.00054
  37        1PY        -0.00068   0.13800  -0.00157  -0.00290   0.07520
  38        1PZ         0.00011  -0.00001  -0.00015   0.00024  -0.00000
  39 15  H  1S          0.18617  -0.03873   0.04584   0.10029  -0.02998
  40 16  H  1S          0.18607  -0.03703   0.04532   0.10032  -0.02873
  41 17  H  1S          0.18985   0.08422   0.05431   0.10022   0.05859
                          11        12        13        14        15
                           O         O         O         O         O
     Eigenvalues --    -0.73322  -0.71235  -0.69149  -0.67973  -0.65546
   1 1   C  1S         -0.00125  -0.00017   0.10322   0.12451   0.00043
   2        1PX         0.22601   0.00014   0.10199  -0.23214  -0.00035
   3        1PY         0.24419  -0.00008  -0.24691  -0.03826  -0.00030
   4        1PZ         0.00023   0.34086   0.00037   0.00110  -0.12615
   5 2   C  1S          0.00841   0.00022  -0.14032  -0.08135  -0.00021
   6        1PX        -0.12890  -0.00030  -0.20000   0.23036   0.00038
   7        1PY        -0.05771  -0.00030   0.11154   0.20223   0.00081
   8        1PZ         0.00013   0.27359   0.00006   0.00124  -0.28239
   9 3   C  1S         -0.03650  -0.00009   0.15058   0.01860   0.00001
  10        1PX         0.31556  -0.00012   0.25436  -0.09810  -0.00018
  11        1PY        -0.13769   0.00075  -0.06830  -0.33478  -0.00123
  12        1PZ         0.00000   0.23652  -0.00013   0.00143  -0.38361
  13 4   C  1S         -0.01625   0.00014  -0.01038  -0.17543  -0.00064
  14        1PX         0.37428  -0.00111   0.02471   0.27275   0.00002
  15        1PY        -0.00289  -0.00010   0.29218  -0.02996  -0.00033
  16        1PZ         0.00048   0.44273   0.00033   0.00097   0.05883
  17 5   C  1S         -0.03430   0.00004  -0.14729   0.04198   0.00022
  18        1PX         0.32204   0.00014  -0.26454  -0.05203  -0.00011
  19        1PY         0.13311  -0.00079  -0.01607   0.34156   0.00141
  20        1PZ         0.00012   0.23571  -0.00005   0.00157  -0.38632
  21 6   C  1S         -0.00014  -0.00010  -0.08804   0.13297   0.00050
  22        1PX         0.21965   0.00027  -0.13657  -0.19918  -0.00030
  23        1PY        -0.24716   0.00034  -0.24374   0.08719   0.00095
  24        1PZ         0.00030   0.33585   0.00010   0.00109  -0.13338
  25 7   C  1S          0.00635   0.00011   0.12826  -0.10014  -0.00038
  26        1PX        -0.12813  -0.00061   0.23218   0.18524   0.00032
  27        1PY         0.06232   0.00030   0.08002  -0.22800  -0.00125
  28        1PZ         0.00013   0.27024   0.00014   0.00138  -0.28752
  29 8   H  1S         -0.23377  -0.00023   0.14850   0.21218   0.00047
  30 9   H  1S          0.02523   0.00032  -0.19365  -0.16315  -0.00074
  31 10  H  1S          0.22851  -0.00043   0.28155   0.06023   0.00041
  32 11  H  1S          0.23250  -0.00010  -0.26990   0.10335   0.00049
  33 12  H  1S         -0.23150  -0.00015  -0.12212   0.22979   0.00095
  34 13  H  1S          0.02567   0.00018   0.17123  -0.19783  -0.00117
  35 14  C  1S          0.07337  -0.00015   0.00110  -0.01688  -0.00011
  36        1PX        -0.31238   0.00160  -0.03400  -0.33778   0.00026
  37        1PY        -0.01115  -0.00003   0.30110  -0.00634   0.00006
  38        1PZ         0.00093   0.42940   0.00042  -0.00029   0.52327
  39 15  H  1S          0.11523  -0.25463  -0.09927   0.08844  -0.33674
  40 16  H  1S          0.11594   0.25765  -0.09441   0.08721   0.34174
  41 17  H  1S          0.10559  -0.00400   0.21615   0.10145  -0.00457
                          16        17        18        19        20
                           O         O         O         O         O
     Eigenvalues --    -0.63613  -0.63283  -0.63073  -0.58040  -0.56189
   1 1   C  1S          0.03789  -0.02254  -0.01263   0.00005  -0.00006
   2        1PX        -0.17390  -0.19377  -0.16035  -0.00005  -0.00003
   3        1PY         0.16284   0.03566  -0.32057   0.00010   0.00028
   4        1PZ        -0.00003  -0.00005  -0.00007   0.42206   0.36668
   5 2   C  1S          0.01197  -0.01335   0.00590   0.00003   0.00008
   6        1PX         0.14903   0.14463   0.16913  -0.00002   0.00001
   7        1PY        -0.14410  -0.24843   0.22639   0.00018  -0.00004
   8        1PZ         0.00010  -0.00023  -0.00019   0.52160  -0.03309
   9 3   C  1S         -0.03929   0.01591   0.01525   0.00000  -0.00003
  10        1PX        -0.08472  -0.11804  -0.30917   0.00011  -0.00013
  11        1PY         0.06851   0.25713  -0.03433  -0.00011   0.00010
  12        1PZ         0.00008  -0.00048  -0.00006   0.22732  -0.42139
  13 4   C  1S          0.00903  -0.00337   0.00004  -0.00000  -0.00002
  14        1PX         0.07055   0.37607  -0.03368  -0.00005  -0.00020
  15        1PY        -0.18503   0.05696   0.24565   0.00002   0.00001
  16        1PZ        -0.00006   0.00043  -0.00010  -0.01168   0.45590
  17 5   C  1S          0.03847  -0.00257  -0.01588  -0.00003   0.00002
  18        1PX         0.04929  -0.08904   0.32685   0.00001   0.00013
  19        1PY        -0.06408  -0.25829   0.00736   0.00013   0.00005
  20        1PZ        -0.00009  -0.00070  -0.00013  -0.21497  -0.43013
  21 6   C  1S         -0.05720  -0.00087   0.01403  -0.00002  -0.00005
  22        1PX         0.10985  -0.22086   0.19248   0.00019  -0.00001
  23        1PY         0.10437  -0.14206  -0.30666   0.00006  -0.00017
  24        1PZ        -0.00018  -0.00020  -0.00012  -0.43089   0.36037
  25 7   C  1S         -0.00852  -0.01164  -0.00330  -0.00003   0.00000
  26        1PX        -0.09975   0.16709  -0.19435   0.00010  -0.00009
  27        1PY        -0.00652   0.31509   0.17696  -0.00002   0.00005
  28        1PZ        -0.00020  -0.00040  -0.00021  -0.51586  -0.05093
  29 8   H  1S         -0.01627   0.07687   0.29408  -0.00001  -0.00013
  30 9   H  1S          0.15486   0.22680  -0.15700  -0.00008   0.00010
  31 10  H  1S         -0.11465  -0.18042  -0.21581   0.00009  -0.00007
  32 11  H  1S          0.03737  -0.16675   0.24719  -0.00000   0.00007
  33 12  H  1S          0.01291   0.01660  -0.30218   0.00001  -0.00013
  34 13  H  1S         -0.03048   0.28968   0.10869  -0.00004   0.00003
  35 14  C  1S         -0.00459  -0.03021   0.00433   0.00001   0.00002
  36        1PX        -0.07258  -0.34612   0.03086   0.00005  -0.00007
  37        1PY         0.62872  -0.13972   0.04336  -0.00022   0.00005
  38        1PZ         0.00012   0.00147   0.00014  -0.00192  -0.27182
  39 15  H  1S         -0.23617   0.14138  -0.01778  -0.00083   0.20774
  40 16  H  1S         -0.22572   0.14036  -0.01717   0.00092  -0.21098
  41 17  H  1S          0.50446  -0.01041   0.00865  -0.00012   0.00287
                          21        22        23        24        25
                           V         V         V         V         V
     Eigenvalues --    -0.23002  -0.22628  -0.10480  -0.10178  -0.05155
   1 1   C  1S          0.00001  -0.00004  -0.00009  -0.00012  -0.28802
   2        1PX         0.00009   0.00013   0.00007  -0.00003  -0.11081
   3        1PY         0.00004  -0.00017   0.00000  -0.00009  -0.20942
   4        1PZ        -0.18194  -0.49230  -0.48183  -0.21373   0.00004
   5 2   C  1S         -0.00003   0.00004   0.00009   0.00002   0.17611
   6        1PX        -0.00001   0.00001  -0.00002  -0.00014  -0.21886
   7        1PY        -0.00009   0.00010   0.00013   0.00007  -0.01236
   8        1PZ        -0.42791   0.31529   0.36000   0.39994  -0.00006
   9 3   C  1S         -0.00002  -0.00002  -0.00003   0.00002  -0.02575
  10        1PX         0.00011   0.00012   0.00002  -0.00020  -0.06278
  11        1PY        -0.00005  -0.00004   0.00011   0.00010   0.01745
  12        1PZ         0.38125   0.36782  -0.14454  -0.51587   0.00007
  13 4   C  1S         -0.00016   0.00003  -0.00020   0.00004   0.49193
  14        1PX        -0.00009   0.00002  -0.00001  -0.00000  -0.05760
  15        1PY         0.00004  -0.00006   0.00001  -0.00010  -0.00509
  16        1PZ         0.54629  -0.08981   0.51921  -0.02463   0.00029
  17 5   C  1S          0.00001   0.00001  -0.00008  -0.00001  -0.03899
  18        1PX        -0.00004   0.00002   0.00008  -0.00014  -0.05710
  19        1PY        -0.00009   0.00013   0.00002  -0.00001  -0.02808
  20        1PZ         0.24398  -0.46663  -0.09663   0.52665  -0.00004
  21 6   C  1S          0.00002   0.00004  -0.00003   0.00008  -0.29938
  22        1PX         0.00003  -0.00021   0.00017  -0.00006  -0.11664
  23        1PY        -0.00009  -0.00006  -0.00010  -0.00002   0.19991
  24        1PZ        -0.02011   0.52047  -0.46451   0.25547  -0.00007
  25 7   C  1S         -0.00003  -0.00001   0.00006  -0.00013   0.19012
  26        1PX         0.00012   0.00005  -0.00002   0.00006  -0.22194
  27        1PY         0.00004   0.00000  -0.00006   0.00009  -0.00015
  28        1PZ        -0.51092  -0.16015   0.32220  -0.43010  -0.00004
  29 8   H  1S         -0.00005   0.00004   0.00007   0.00003   0.01872
  30 9   H  1S         -0.00000  -0.00008   0.00001   0.00004  -0.14636
  31 10  H  1S         -0.00001   0.00001   0.00004   0.00014   0.10800
  32 11  H  1S         -0.00005  -0.00004   0.00002   0.00007   0.12228
  33 12  H  1S         -0.00004  -0.00002   0.00008  -0.00005   0.03282
  34 13  H  1S          0.00005  -0.00000  -0.00001   0.00007  -0.14060
  35 14  C  1S          0.00001  -0.00001   0.00004  -0.00002  -0.22370
  36        1PX         0.00012  -0.00003   0.00027  -0.00004  -0.41438
  37        1PY         0.00004   0.00015   0.00003   0.00012  -0.01186
  38        1PZ        -0.04192   0.01152   0.02487   0.00207   0.00070
  39 15  H  1S          0.09224  -0.01516   0.09474  -0.00336   0.04399
  40 16  H  1S         -0.09366   0.01544  -0.09617   0.00347   0.04356
  41 17  H  1S          0.00124  -0.00024   0.00130  -0.00009   0.04975
                          26        27        28        29        30
                           V         V         V         V         V
     Eigenvalues --    -0.04830  -0.04413  -0.04340  -0.04212  -0.04078
   1 1   C  1S          0.23590  -0.13614  -0.20659  -0.13550  -0.10500
   2        1PX         0.12234  -0.05277  -0.10679   0.33808  -0.16493
   3        1PY         0.34546   0.14072   0.08788  -0.18164   0.04224
   4        1PZ        -0.00015   0.00005   0.00002   0.00014   0.00001
   5 2   C  1S         -0.16362   0.31704   0.26306  -0.09160  -0.05463
   6        1PX         0.19171   0.18460   0.01610   0.13243  -0.25042
   7        1PY         0.09512   0.29433   0.21978  -0.15171   0.18225
   8        1PZ         0.00006  -0.00009  -0.00013   0.00006  -0.00013
   9 3   C  1S         -0.03165  -0.20266  -0.32179   0.13320   0.28687
  10        1PX         0.05342   0.40288   0.08155   0.04262  -0.11412
  11        1PY         0.02418   0.16238   0.09096  -0.01971   0.42820
  12        1PZ        -0.00006  -0.00017   0.00005  -0.00007   0.00018
  13 4   C  1S         -0.01545  -0.03476   0.04126   0.23142  -0.01815
  14        1PX        -0.04416  -0.04428   0.05343   0.46506  -0.04313
  15        1PY         0.50467  -0.00113   0.00935   0.03517  -0.01438
  16        1PZ        -0.00003  -0.00019   0.00003   0.00017  -0.00005
  17 5   C  1S          0.02084  -0.11770   0.36282   0.01086  -0.31110
  18        1PX        -0.05546   0.36766  -0.14703   0.07794   0.13718
  19        1PY         0.01747  -0.17719   0.13099   0.07073   0.40578
  20        1PZ         0.00004   0.00013  -0.00002   0.00007   0.00005
  21 6   C  1S         -0.20411  -0.10455   0.17500  -0.19219   0.12035
  22        1PX        -0.17335  -0.04280   0.18406   0.30344   0.10399
  23        1PY         0.31832  -0.11971   0.15972   0.20921  -0.00202
  24        1PZ        -0.00001   0.00012   0.00002   0.00018   0.00005
  25 7   C  1S          0.17566   0.25779  -0.31671   0.01366   0.08573
  26        1PX        -0.21024   0.15681  -0.02561   0.14751   0.23706
  27        1PY         0.07664  -0.25897   0.30256   0.13748   0.13446
  28        1PZ        -0.00009  -0.00015   0.00012  -0.00001   0.00005
  29 8   H  1S          0.17528   0.22783   0.20763   0.20801   0.01519
  30 9   H  1S          0.22714  -0.02318  -0.02320  -0.11550   0.31593
  31 10  H  1S         -0.01917  -0.13239   0.28977  -0.18063   0.05538
  32 11  H  1S          0.03623  -0.18122  -0.27919  -0.12009  -0.03851
  33 12  H  1S         -0.21492   0.18798  -0.19486   0.20840  -0.03633
  34 13  H  1S         -0.20722  -0.00054  -0.01497  -0.20919  -0.29251
  35 14  C  1S         -0.01152  -0.01624   0.00785   0.08991  -0.00939
  36        1PX        -0.03317  -0.01937   0.01824   0.26233  -0.02712
  37        1PY         0.10582  -0.01264   0.00612   0.01869  -0.00941
  38        1PZ         0.00006   0.00044  -0.00005  -0.00051   0.00007
  39 15  H  1S          0.07554  -0.00595  -0.00462   0.02705  -0.01059
  40 16  H  1S          0.07239  -0.00617  -0.00435   0.02693  -0.01027
  41 17  H  1S         -0.14783   0.00988   0.01256   0.00158   0.01459
                          31        32        33        34        35
                           V         V         V         V         V
     Eigenvalues --    -0.02809  -0.00432   0.00078   0.00426   0.01079
   1 1   C  1S         -0.20182  -0.02244  -0.21961  -0.10732  -0.07405
   2        1PX         0.03097   0.27450   0.25870  -0.24140  -0.22839
   3        1PY         0.11505   0.00115   0.11722   0.24774  -0.21462
   4        1PZ         0.00010   0.00004   0.00007  -0.00007  -0.00021
   5 2   C  1S         -0.06491  -0.26974   0.03857   0.14969   0.00344
   6        1PX        -0.12640   0.01450   0.03010  -0.30457  -0.19403
   7        1PY         0.16757   0.16524  -0.06051  -0.16915   0.22898
   8        1PZ        -0.00013   0.00001  -0.00001  -0.00001   0.00003
   9 3   C  1S         -0.14318   0.10683   0.15336   0.12540   0.13374
  10        1PX        -0.19906   0.04640   0.21172  -0.00066   0.16004
  11        1PY         0.09415  -0.11115   0.05216  -0.12386  -0.07248
  12        1PZ         0.00017  -0.00002  -0.00003   0.00003  -0.00004
  13 4   C  1S         -0.07166   0.22910  -0.01322   0.00628   0.00326
  14        1PX         0.23488  -0.28783  -0.00716   0.01388   0.33476
  15        1PY         0.00335  -0.00606  -0.26374   0.22289  -0.02397
  16        1PZ        -0.00015   0.00002  -0.00004   0.00002   0.00071
  17 5   C  1S         -0.14919   0.09568  -0.14267  -0.13993   0.10931
  18        1PX        -0.20037   0.03777  -0.22178   0.00627   0.08903
  19        1PY        -0.09030   0.11397   0.06287  -0.13546   0.18818
  20        1PZ        -0.00010   0.00001  -0.00001  -0.00007   0.00004
  21 6   C  1S         -0.20662  -0.00815   0.22205   0.10617  -0.08710
  22        1PX         0.00971   0.26125  -0.26808   0.23480  -0.25725
  23        1PY        -0.10576   0.00217   0.09112   0.27340   0.18505
  24        1PZ         0.00010   0.00006  -0.00008   0.00005  -0.00028
  25 7   C  1S         -0.05195  -0.27219  -0.02109  -0.14611  -0.03554
  26        1PX        -0.13773   0.01284  -0.04473   0.30834  -0.28773
  27        1PY        -0.16707  -0.17158  -0.01400  -0.20569  -0.22419
  28        1PZ        -0.00005   0.00005  -0.00001   0.00010  -0.00000
  29 8   H  1S          0.28821   0.16499   0.37388   0.11637  -0.19859
  30 9   H  1S          0.24682   0.34110  -0.08418  -0.19037   0.21027
  31 10  H  1S          0.35110  -0.16305  -0.25523  -0.13547  -0.23342
  32 11  H  1S          0.35728  -0.14786   0.25412   0.14445  -0.20632
  33 12  H  1S          0.27513   0.14054  -0.37007  -0.13338  -0.18519
  34 13  H  1S          0.23863   0.34727   0.03632   0.21116   0.25163
  35 14  C  1S          0.09579  -0.15242   0.01389  -0.00344   0.05881
  36        1PX         0.23773  -0.33292  -0.00064   0.00228   0.24070
  37        1PY        -0.00650  -0.01668  -0.19750   0.26268   0.04460
  38        1PZ         0.00007   0.00095   0.00033  -0.00031  -0.00392
  39 15  H  1S         -0.00683   0.00201  -0.11708   0.12778   0.04993
  40 16  H  1S         -0.00700   0.00132  -0.11316   0.12316   0.05456
  41 17  H  1S          0.00436   0.01627   0.19499  -0.23309   0.00315
                          36        37        38        39        40
                           V         V         V         V         V
     Eigenvalues --     0.01241   0.01448   0.01540   0.01548   0.02339
   1 1   C  1S          0.12779  -0.07079  -0.04470   0.08113  -0.15222
   2        1PX         0.08340   0.15049  -0.07251   0.12288   0.17893
   3        1PY        -0.06806   0.17606   0.15255  -0.27694  -0.07602
   4        1PZ        -0.00002   0.00043   0.03903   0.02209   0.00025
   5 2   C  1S          0.15688  -0.08055   0.04959  -0.08530  -0.09327
   6        1PX         0.34461  -0.08610  -0.12834   0.22882  -0.02545
   7        1PY        -0.14996  -0.29912  -0.07356   0.13732   0.06467
   8        1PZ        -0.00001  -0.00007  -0.01157  -0.00653  -0.00007
   9 3   C  1S          0.05233   0.02759   0.10977  -0.19345  -0.02766
  10        1PX         0.09297  -0.41320   0.05171  -0.08172  -0.03217
  11        1PY         0.49117   0.02340  -0.05875   0.10524  -0.10213
  12        1PZ         0.00004   0.00010   0.00187   0.00107   0.00002
  13 4   C  1S          0.02481  -0.03659  -0.08184   0.14590  -0.02404
  14        1PX        -0.03075  -0.00566  -0.04507   0.08461  -0.03383
  15        1PY         0.00238  -0.03646   0.03771  -0.06553  -0.40006
  16        1PZ         0.00030  -0.00125  -0.10978  -0.06171  -0.00008
  17 5   C  1S         -0.15001   0.07227   0.08509  -0.15187   0.06097
  18        1PX        -0.11539   0.42408  -0.05551   0.09048   0.02343
  19        1PY         0.40001   0.10707   0.11754  -0.20672  -0.07355
  20        1PZ         0.00007   0.00006   0.00070   0.00033  -0.00003
  21 6   C  1S         -0.06492   0.00633  -0.09070   0.15949   0.12634
  22        1PX         0.00175  -0.20155  -0.00141   0.00442  -0.18941
  23        1PY        -0.02094   0.05564  -0.16627   0.29647  -0.17351
  24        1PZ        -0.00015   0.00032   0.03434   0.01935  -0.00018
  25 7   C  1S         -0.16356   0.09675  -0.01255   0.01904   0.10551
  26        1PX        -0.19076  -0.06696  -0.15968   0.28107  -0.02610
  27        1PY        -0.14606  -0.23562   0.09962  -0.17482   0.11196
  28        1PZ         0.00002  -0.00014  -0.00912  -0.00507   0.00004
  29 8   H  1S         -0.08421   0.22810   0.08797  -0.16461   0.14161
  30 9   H  1S         -0.27894  -0.16159  -0.06755   0.12306   0.10851
  31 10  H  1S          0.07565   0.28117  -0.12998   0.22296   0.00489
  32 11  H  1S          0.04539  -0.38752  -0.05759   0.10778  -0.03093
  33 12  H  1S          0.06216  -0.13614   0.16461  -0.29161  -0.05323
  34 13  H  1S          0.25605   0.12762  -0.03904   0.07030  -0.14191
  35 14  C  1S         -0.02376   0.01690   0.01878  -0.03039  -0.02732
  36        1PX        -0.03132   0.00904   0.00200  -0.00005  -0.00839
  37        1PY         0.21473  -0.06751   0.00175  -0.00028   0.53683
  38        1PZ        -0.00160   0.00667   0.59431   0.33486   0.00043
  39 15  H  1S          0.10768  -0.03826   0.42547   0.27092   0.24307
  40 16  H  1S          0.10594  -0.04680  -0.45853  -0.22715   0.23311
  41 17  H  1S         -0.18568   0.05253  -0.01666   0.04015  -0.42111
                          41
                           V
     Eigenvalues --     0.03964
   1 1   C  1S         -0.01663
   2        1PX        -0.01278
   3        1PY        -0.06387
   4        1PZ        -0.00009
   5 2   C  1S          0.00162
   6        1PX        -0.00078
   7        1PY         0.02635
   8        1PZ         0.00003
   9 3   C  1S         -0.00515
  10        1PX         0.00872
  11        1PY         0.00244
  12        1PZ        -0.00001
  13 4   C  1S          0.04544
  14        1PX         0.09763
  15        1PY        -0.01334
  16        1PZ         0.00029
  17 5   C  1S         -0.00290
  18        1PX         0.00678
  19        1PY        -0.00206
  20        1PZ        -0.00000
  21 6   C  1S         -0.01640
  22        1PX        -0.01756
  23        1PY         0.04824
  24        1PZ        -0.00011
  25 7   C  1S          0.00520
  26        1PX        -0.00655
  27        1PY        -0.02019
  28        1PZ         0.00003
  29 8   H  1S         -0.01564
  30 9   H  1S          0.01561
  31 10  H  1S         -0.00146
  32 11  H  1S         -0.00178
  33 12  H  1S         -0.00288
  34 13  H  1S          0.01021
  35 14  C  1S          0.54330
  36        1PX        -0.31848
  37        1PY         0.03081
  38        1PZ        -0.00101
  39 15  H  1S         -0.42293
  40 16  H  1S         -0.42133
  41 17  H  1S         -0.47425
     Density Matrix:
                           1         2         3         4         5
   1 1   C  1S          1.22192
   2        1PX        -0.04263   0.96252
   3        1PY        -0.05437   0.06672   0.98925
   4        1PZ         0.00005   0.00000   0.00007   0.88938
   5 2   C  1S          0.28706   0.47827  -0.07013   0.00012   1.22142
   6        1PX        -0.46420  -0.59334   0.11913  -0.00015   0.01783
   7        1PY         0.14987   0.21599   0.09109   0.00018  -0.06846
   8        1PZ        -0.00001  -0.00017   0.00021   0.67379   0.00003
   9 3   C  1S         -0.00747  -0.03482  -0.00725  -0.00001   0.28000
  10        1PX         0.03401   0.06477  -0.00738   0.00008  -0.40232
  11        1PY         0.00807   0.03765   0.00182  -0.00001  -0.26568
  12        1PZ        -0.00000  -0.00008  -0.00000   0.14089   0.00009
  13 4   C  1S          0.28621  -0.18559   0.44639  -0.00032  -0.00947
  14        1PX         0.22820  -0.02301   0.33290  -0.00022  -0.02339
  15        1PY        -0.41544   0.25995  -0.49498   0.00029   0.02243
  16        1PZ         0.00021  -0.00026   0.00032   0.61146  -0.00001
  17 5   C  1S         -0.00996  -0.01469   0.00562  -0.00002  -0.00756
  18        1PX        -0.00225   0.00409  -0.00693   0.00001   0.01425
  19        1PY         0.01543   0.01102   0.00304   0.00008   0.03162
  20        1PZ         0.00001   0.00007  -0.00011  -0.23873   0.00001
  21 6   C  1S         -0.01406   0.00439  -0.03811   0.00003  -0.00751
  22        1PX         0.00518  -0.00257   0.02836  -0.00006   0.00856
  23        1PY         0.03720  -0.02640   0.06479  -0.00011   0.01111
  24        1PZ         0.00001  -0.00004   0.00014   0.16317   0.00000
  25 7   C  1S         -0.00782   0.00859  -0.01149  -0.00001  -0.01135
  26        1PX         0.01335   0.00277   0.00931   0.00006  -0.01350
  27        1PY        -0.00023  -0.00791   0.00338   0.00001   0.00910
  28        1PZ        -0.00001   0.00009  -0.00003  -0.21602  -0.00003
  29 8   H  1S          0.54997  -0.49486  -0.62709   0.00001  -0.04623
  30 9   H  1S         -0.04812  -0.05127  -0.00335  -0.00004   0.55361
  31 10  H  1S          0.05039   0.07205  -0.00414   0.00005  -0.04698
  32 11  H  1S         -0.00091  -0.00372  -0.00072  -0.00002   0.05122
  33 12  H  1S          0.04916  -0.02141   0.06829  -0.00005  -0.00050
  34 13  H  1S         -0.00236   0.00089  -0.00456   0.00001  -0.00020
  35 14  C  1S         -0.03148   0.01781  -0.01359   0.00001   0.02267
  36        1PX        -0.04219   0.00892  -0.05245   0.00007   0.04239
  37        1PY         0.01850   0.00815   0.00668   0.00004  -0.00599
  38        1PZ         0.00018  -0.00013  -0.00014  -0.04025  -0.00010
  39 15  H  1S         -0.00690   0.00312  -0.00213   0.06323   0.00063
  40 16  H  1S         -0.00625   0.00299  -0.00146  -0.06432   0.00044
  41 17  H  1S          0.05126  -0.02506   0.04636   0.00091  -0.01461
                           6         7         8         9        10
   6        1PX         0.91523
   7        1PY        -0.02567   1.03689
   8        1PZ         0.00000  -0.00004   0.85552
   9 3   C  1S          0.35817   0.31972  -0.00010   1.22175
  10        1PX        -0.35667  -0.41225   0.00022   0.06396   1.01470
  11        1PY        -0.32744  -0.16217   0.00003  -0.03319  -0.05324
  12        1PZ         0.00011   0.00014   0.61110  -0.00002  -0.00003
  13 4   C  1S          0.03117  -0.02425  -0.00003  -0.00929   0.01072
  14        1PX         0.03643  -0.00993  -0.00005  -0.00523   0.00672
  15        1PY        -0.05740   0.02658   0.00003   0.01565  -0.01060
  16        1PZ         0.00006   0.00002   0.16668   0.00001  -0.00007
  17 5   C  1S         -0.01642  -0.02998   0.00000   0.28477  -0.02846
  18        1PX         0.01141   0.00285  -0.00003  -0.03710   0.12714
  19        1PY         0.05107   0.05218  -0.00008  -0.48302   0.03251
  20        1PZ         0.00002   0.00008   0.15138  -0.00010   0.00013
  21 6   C  1S          0.01284   0.00017  -0.00003  -0.00991  -0.00257
  22        1PX         0.00324   0.00771   0.00010  -0.01497   0.00409
  23        1PY        -0.00895   0.00338   0.00000  -0.00539   0.00696
  24        1PZ        -0.00000  -0.00006  -0.21425  -0.00000  -0.00006
  25 7   C  1S         -0.01371  -0.00888   0.00000  -0.00756   0.01361
  26        1PX        -0.00129  -0.00985   0.00005  -0.01586   0.01039
  27        1PY         0.00998   0.00614   0.00002   0.03026  -0.00198
  28        1PZ        -0.00004  -0.00005  -0.22451  -0.00000   0.00005
  29 8   H  1S          0.04450  -0.02437  -0.00005   0.05134  -0.06570
  30 9   H  1S          0.16651  -0.77844   0.00013  -0.04613   0.04862
  31 10  H  1S         -0.03337  -0.04172  -0.00000   0.55521   0.70909
  32 11  H  1S          0.05158   0.05416  -0.00005  -0.04628   0.01199
  33 12  H  1S          0.00158  -0.00204  -0.00001  -0.00149   0.00151
  34 13  H  1S         -0.00207  -0.00225   0.00002   0.05025  -0.01037
  35 14  C  1S         -0.03028   0.01433  -0.00000  -0.00172   0.00295
  36        1PX        -0.05782   0.02394  -0.00001  -0.00086   0.00246
  37        1PY         0.00541  -0.00105  -0.00009   0.00056  -0.00062
  38        1PZ         0.00012  -0.00006  -0.04458   0.00002  -0.00003
  39 15  H  1S         -0.00121   0.00057   0.03639   0.00001   0.00076
  40 16  H  1S         -0.00096   0.00042  -0.03697   0.00000   0.00077
  41 17  H  1S          0.02163  -0.00864   0.00050  -0.00037  -0.00103
                          11        12        13        14        15
  11        1PY         0.93885
  12        1PZ         0.00002   0.86468
  13 4   C  1S          0.01174   0.00006   1.22109
  14        1PX         0.00855   0.00005  -0.04745   1.00121
  15        1PY         0.00135  -0.00002   0.00107  -0.00029   0.91322
  16        1PZ         0.00001  -0.22524  -0.00012   0.00006  -0.00000
  17 5   C  1S          0.48327   0.00007  -0.00922  -0.00532  -0.01530
  18        1PX        -0.04597  -0.00002   0.01029   0.00670   0.01019
  19        1PY        -0.63703  -0.00022  -0.01179  -0.00865   0.00153
  20        1PZ        -0.00023   0.67267   0.00005   0.00005  -0.00002
  21 6   C  1S         -0.01546  -0.00001   0.28894   0.23225   0.41251
  22        1PX        -0.01112   0.00009  -0.19597  -0.03020  -0.26946
  23        1PY         0.00322   0.00006  -0.44497  -0.33752  -0.48349
  24        1PZ         0.00004  -0.23841  -0.00026  -0.00019  -0.00014
  25 7   C  1S         -0.03179   0.00000  -0.00980  -0.02315  -0.02216
  26        1PX        -0.05013  -0.00005   0.03215   0.03635   0.05731
  27        1PY         0.05293   0.00000   0.02369   0.00896   0.02532
  28        1PZ        -0.00002   0.15682  -0.00003  -0.00003   0.00001
  29 8   H  1S         -0.03623   0.00004  -0.04307  -0.03604   0.04332
  30 9   H  1S          0.02205   0.00001   0.05297   0.04042  -0.06213
  31 10  H  1S         -0.35891  -0.00018  -0.00200  -0.00255   0.00231
  32 11  H  1S         -0.05112   0.00003  -0.00217  -0.00251  -0.00240
  33 12  H  1S         -0.00370   0.00002  -0.04274  -0.03723  -0.04266
  34 13  H  1S          0.07143   0.00001   0.05304   0.04058   0.06098
  35 14  C  1S          0.00102  -0.00000   0.22327  -0.38769   0.00035
  36        1PX        -0.00021  -0.00002   0.49751  -0.70523  -0.00036
  37        1PY        -0.00127  -0.00004   0.01025  -0.01557   0.09627
  38        1PZ        -0.00002   0.02988  -0.00057   0.00086   0.00001
  39 15  H  1S          0.00124  -0.03744  -0.02818   0.04910  -0.01089
  40 16  H  1S          0.00120   0.03803  -0.02805   0.04899  -0.01048
  41 17  H  1S         -0.00151  -0.00050  -0.03136   0.05146   0.01854
                          16        17        18        19        20
  16        1PZ         0.81490
  17 5   C  1S          0.00001   1.22121
  18        1PX         0.00002   0.06494   1.01647
  19        1PY         0.00007   0.03210   0.05191   0.93678
  20        1PZ        -0.22391  -0.00000   0.00002   0.00002   0.87207
  21 6   C  1S          0.00015  -0.00737   0.03396  -0.00854   0.00001
  22        1PX        -0.00028  -0.03480   0.06484  -0.03887  -0.00008
  23        1PY        -0.00015   0.00798   0.00591   0.00242   0.00002
  24        1PZ         0.62034  -0.00001   0.00004  -0.00006   0.13663
  25 7   C  1S         -0.00002   0.28052  -0.39826   0.27297   0.00006
  26        1PX        -0.00001   0.35227  -0.34268   0.33038  -0.00006
  27        1PY        -0.00001  -0.32619   0.41572  -0.17495  -0.00009
  28        1PZ         0.17106  -0.00000  -0.00008  -0.00011   0.61516
  29 8   H  1S          0.00002  -0.00142   0.00152   0.00377   0.00003
  30 9   H  1S          0.00004   0.05008  -0.01160  -0.07110  -0.00007
  31 10  H  1S         -0.00001  -0.04628   0.01280   0.05104   0.00001
  32 11  H  1S          0.00002   0.55547   0.71514   0.34605   0.00013
  33 12  H  1S          0.00002   0.05101  -0.06461   0.03709   0.00003
  34 13  H  1S          0.00000  -0.04611   0.04817  -0.02283  -0.00004
  35 14  C  1S          0.00009  -0.00191   0.00330  -0.00122  -0.00000
  36        1PX         0.00013  -0.00070   0.00245   0.00015  -0.00002
  37        1PY        -0.00002  -0.00184   0.00245  -0.00237   0.00004
  38        1PZ         0.19398   0.00002  -0.00004   0.00001   0.03279
  39 15  H  1S         -0.07519  -0.00028  -0.00036   0.00064  -0.03806
  40 16  H  1S          0.07641  -0.00027  -0.00034   0.00058   0.03867
  41 17  H  1S         -0.00102   0.00054   0.00048  -0.00175  -0.00051
                          21        22        23        24        25
  21 6   C  1S          1.22132
  22        1PX        -0.04132   0.95879
  23        1PY         0.05694  -0.06662   0.99020
  24        1PZ         0.00001   0.00001  -0.00008   0.89223
  25 7   C  1S          0.28591   0.47957   0.05979   0.00019   1.22212
  26        1PX        -0.46592  -0.60086  -0.10432  -0.00036   0.01837
  27        1PY        -0.14047  -0.20271   0.09672  -0.00010   0.06764
  28        1PZ        -0.00011  -0.00040  -0.00013   0.66606   0.00004
  29 8   H  1S          0.04883  -0.02232  -0.06725  -0.00005  -0.00043
  30 9   H  1S         -0.00268   0.00119   0.00474   0.00005  -0.00023
  31 10  H  1S         -0.00087  -0.00376   0.00081  -0.00002   0.05126
  32 11  H  1S          0.05043   0.07256   0.00262   0.00005  -0.04703
  33 12  H  1S          0.55070  -0.48010   0.63732  -0.00016  -0.04626
  34 13  H  1S         -0.04820  -0.05129   0.00453  -0.00002   0.55314
  35 14  C  1S         -0.03154   0.01999   0.01072   0.00001   0.02304
  36        1PX        -0.04231   0.01105   0.05415   0.00007   0.04259
  37        1PY        -0.02799   0.00023  -0.00035  -0.00001   0.01043
  38        1PZ         0.00018  -0.00011   0.00011  -0.04541  -0.00010
  39 15  H  1S          0.03121  -0.01438  -0.03065   0.06956  -0.00963
  40 16  H  1S          0.03033  -0.01384  -0.02994  -0.07062  -0.00942
  41 17  H  1S         -0.02003   0.00487   0.02024   0.00086   0.00392
                          26        27        28        29        30
  26        1PX         0.91649
  27        1PY         0.02793   1.03628
  28        1PZ         0.00003   0.00003   0.84880
  29 8   H  1S          0.00142   0.00191  -0.00002   0.82623
  30 9   H  1S         -0.00193   0.00229  -0.00000  -0.03066   0.82460
  31 10  H  1S          0.05047  -0.05505   0.00002  -0.02347  -0.02794
  32 11  H  1S         -0.03233   0.04226  -0.00002   0.00837  -0.02383
  33 12  H  1S          0.04493   0.02365  -0.00003  -0.02438   0.00744
  34 13  H  1S          0.18042   0.77578   0.00009   0.00720   0.00673
  35 14  C  1S         -0.03123  -0.01390  -0.00002  -0.01200  -0.00975
  36        1PX        -0.05900  -0.02320  -0.00003  -0.02889  -0.02175
  37        1PY        -0.01088  -0.00294   0.00009  -0.01193   0.00183
  38        1PZ         0.00014   0.00005  -0.03916   0.00011   0.00001
  39 15  H  1S          0.01416   0.00552   0.03594   0.01433  -0.00009
  40 16  H  1S          0.01384   0.00541  -0.03649   0.01383   0.00005
  41 17  H  1S         -0.00602  -0.00313   0.00048   0.00630   0.01086
                          31        32        33        34        35
  31 10  H  1S          0.82307
  32 11  H  1S         -0.02857   0.82278
  33 12  H  1S          0.00831  -0.02334   0.82563
  34 13  H  1S         -0.02389  -0.02810  -0.03033   0.82486
  35 14  C  1S          0.00358   0.00381  -0.01410  -0.00959   1.21442
  36        1PX         0.00682   0.00693  -0.02899  -0.02211  -0.06633
  37        1PY        -0.00129   0.00220   0.00513  -0.00217  -0.00045
  38        1PZ        -0.00002  -0.00002   0.00011   0.00002   0.00000
  39 15  H  1S          0.00046  -0.00191   0.00466   0.00730   0.49614
  40 16  H  1S          0.00042  -0.00187   0.00466   0.00714   0.49589
  41 17  H  1S         -0.00298   0.00112   0.02982  -0.00349   0.50048
                          36        37        38        39        40
  36        1PX         0.85815
  37        1PY        -0.00148   1.07580
  38        1PZ         0.00015   0.00000   1.06418
  39 15  H  1S         -0.25317  -0.42177  -0.68348   0.87144
  40 16  H  1S         -0.25172  -0.40455   0.69415  -0.02693   0.87117
  41 17  H  1S         -0.28179   0.80084  -0.00927  -0.03716  -0.03686
                          41
  41 17  H  1S          0.88237
    Full Mulliken population analysis:
                           1         2         3         4         5
   1 1   C  1S          1.22192
   2        1PX         0.00000   0.96252
   3        1PY         0.00000   0.00000   0.98925
   4        1PZ         0.00000   0.00000   0.00000   0.88938
   5 2   C  1S          0.00000   0.00000   0.00000   0.00000   1.22142
   6        1PX         0.00000   0.00000   0.00000   0.00000   0.00000
   7        1PY         0.00000   0.00000   0.00000   0.00000   0.00000
   8        1PZ         0.00000   0.00000   0.00000   0.00000   0.00000
   9 3   C  1S          0.00000   0.00000   0.00000   0.00000   0.00000
  10        1PX         0.00000   0.00000   0.00000   0.00000   0.00000
  11        1PY         0.00000   0.00000   0.00000   0.00000   0.00000
  12        1PZ         0.00000   0.00000   0.00000   0.00000   0.00000
  13 4   C  1S          0.00000   0.00000   0.00000   0.00000   0.00000
  14        1PX         0.00000   0.00000   0.00000   0.00000   0.00000
  15        1PY         0.00000   0.00000   0.00000   0.00000   0.00000
  16        1PZ         0.00000   0.00000   0.00000   0.00000   0.00000
  17 5   C  1S          0.00000   0.00000   0.00000   0.00000   0.00000
  18        1PX         0.00000   0.00000   0.00000   0.00000   0.00000
  19        1PY         0.00000   0.00000   0.00000   0.00000   0.00000
  20        1PZ         0.00000   0.00000   0.00000   0.00000   0.00000
  21 6   C  1S          0.00000   0.00000   0.00000   0.00000   0.00000
  22        1PX         0.00000   0.00000   0.00000   0.00000   0.00000
  23        1PY         0.00000   0.00000   0.00000   0.00000   0.00000
  24        1PZ         0.00000   0.00000   0.00000   0.00000   0.00000
  25 7   C  1S          0.00000   0.00000   0.00000   0.00000   0.00000
  26        1PX         0.00000   0.00000   0.00000   0.00000   0.00000
  27        1PY         0.00000   0.00000   0.00000   0.00000   0.00000
  28        1PZ         0.00000   0.00000   0.00000   0.00000   0.00000
  29 8   H  1S          0.00000   0.00000   0.00000   0.00000   0.00000
  30 9   H  1S          0.00000   0.00000   0.00000   0.00000   0.00000
  31 10  H  1S          0.00000   0.00000   0.00000   0.00000   0.00000
  32 11  H  1S          0.00000   0.00000   0.00000   0.00000   0.00000
  33 12  H  1S          0.00000   0.00000   0.00000   0.00000   0.00000
  34 13  H  1S          0.00000   0.00000   0.00000   0.00000   0.00000
  35 14  C  1S          0.00000   0.00000   0.00000   0.00000   0.00000
  36        1PX         0.00000   0.00000   0.00000   0.00000   0.00000
  37        1PY         0.00000   0.00000   0.00000   0.00000   0.00000
  38        1PZ         0.00000   0.00000   0.00000   0.00000   0.00000
  39 15  H  1S          0.00000   0.00000   0.00000   0.00000   0.00000
  40 16  H  1S          0.00000   0.00000   0.00000   0.00000   0.00000
  41 17  H  1S          0.00000   0.00000   0.00000   0.00000   0.00000
                           6         7         8         9        10
   6        1PX         0.91523
   7        1PY         0.00000   1.03689
   8        1PZ         0.00000   0.00000   0.85552
   9 3   C  1S          0.00000   0.00000   0.00000   1.22175
  10        1PX         0.00000   0.00000   0.00000   0.00000   1.01470
  11        1PY         0.00000   0.00000   0.00000   0.00000   0.00000
  12        1PZ         0.00000   0.00000   0.00000   0.00000   0.00000
  13 4   C  1S          0.00000   0.00000   0.00000   0.00000   0.00000
  14        1PX         0.00000   0.00000   0.00000   0.00000   0.00000
  15        1PY         0.00000   0.00000   0.00000   0.00000   0.00000
  16        1PZ         0.00000   0.00000   0.00000   0.00000   0.00000
  17 5   C  1S          0.00000   0.00000   0.00000   0.00000   0.00000
  18        1PX         0.00000   0.00000   0.00000   0.00000   0.00000
  19        1PY         0.00000   0.00000   0.00000   0.00000   0.00000
  20        1PZ         0.00000   0.00000   0.00000   0.00000   0.00000
  21 6   C  1S          0.00000   0.00000   0.00000   0.00000   0.00000
  22        1PX         0.00000   0.00000   0.00000   0.00000   0.00000
  23        1PY         0.00000   0.00000   0.00000   0.00000   0.00000
  24        1PZ         0.00000   0.00000   0.00000   0.00000   0.00000
  25 7   C  1S          0.00000   0.00000   0.00000   0.00000   0.00000
  26        1PX         0.00000   0.00000   0.00000   0.00000   0.00000
  27        1PY         0.00000   0.00000   0.00000   0.00000   0.00000
  28        1PZ         0.00000   0.00000   0.00000   0.00000   0.00000
  29 8   H  1S          0.00000   0.00000   0.00000   0.00000   0.00000
  30 9   H  1S          0.00000   0.00000   0.00000   0.00000   0.00000
  31 10  H  1S          0.00000   0.00000   0.00000   0.00000   0.00000
  32 11  H  1S          0.00000   0.00000   0.00000   0.00000   0.00000
  33 12  H  1S          0.00000   0.00000   0.00000   0.00000   0.00000
  34 13  H  1S          0.00000   0.00000   0.00000   0.00000   0.00000
  35 14  C  1S          0.00000   0.00000   0.00000   0.00000   0.00000
  36        1PX         0.00000   0.00000   0.00000   0.00000   0.00000
  37        1PY         0.00000   0.00000   0.00000   0.00000   0.00000
  38        1PZ         0.00000   0.00000   0.00000   0.00000   0.00000
  39 15  H  1S          0.00000   0.00000   0.00000   0.00000   0.00000
  40 16  H  1S          0.00000   0.00000   0.00000   0.00000   0.00000
  41 17  H  1S          0.00000   0.00000   0.00000   0.00000   0.00000
                          11        12        13        14        15
  11        1PY         0.93885
  12        1PZ         0.00000   0.86468
  13 4   C  1S          0.00000   0.00000   1.22109
  14        1PX         0.00000   0.00000   0.00000   1.00121
  15        1PY         0.00000   0.00000   0.00000   0.00000   0.91322
  16        1PZ         0.00000   0.00000   0.00000   0.00000   0.00000
  17 5   C  1S          0.00000   0.00000   0.00000   0.00000   0.00000
  18        1PX         0.00000   0.00000   0.00000   0.00000   0.00000
  19        1PY         0.00000   0.00000   0.00000   0.00000   0.00000
  20        1PZ         0.00000   0.00000   0.00000   0.00000   0.00000
  21 6   C  1S          0.00000   0.00000   0.00000   0.00000   0.00000
  22        1PX         0.00000   0.00000   0.00000   0.00000   0.00000
  23        1PY         0.00000   0.00000   0.00000   0.00000   0.00000
  24        1PZ         0.00000   0.00000   0.00000   0.00000   0.00000
  25 7   C  1S          0.00000   0.00000   0.00000   0.00000   0.00000
  26        1PX         0.00000   0.00000   0.00000   0.00000   0.00000
  27        1PY         0.00000   0.00000   0.00000   0.00000   0.00000
  28        1PZ         0.00000   0.00000   0.00000   0.00000   0.00000
  29 8   H  1S          0.00000   0.00000   0.00000   0.00000   0.00000
  30 9   H  1S          0.00000   0.00000   0.00000   0.00000   0.00000
  31 10  H  1S          0.00000   0.00000   0.00000   0.00000   0.00000
  32 11  H  1S          0.00000   0.00000   0.00000   0.00000   0.00000
  33 12  H  1S          0.00000   0.00000   0.00000   0.00000   0.00000
  34 13  H  1S          0.00000   0.00000   0.00000   0.00000   0.00000
  35 14  C  1S          0.00000   0.00000   0.00000   0.00000   0.00000
  36        1PX         0.00000   0.00000   0.00000   0.00000   0.00000
  37        1PY         0.00000   0.00000   0.00000   0.00000   0.00000
  38        1PZ         0.00000   0.00000   0.00000   0.00000   0.00000
  39 15  H  1S          0.00000   0.00000   0.00000   0.00000   0.00000
  40 16  H  1S          0.00000   0.00000   0.00000   0.00000   0.00000
  41 17  H  1S          0.00000   0.00000   0.00000   0.00000   0.00000
                          16        17        18        19        20
  16        1PZ         0.81490
  17 5   C  1S          0.00000   1.22121
  18        1PX         0.00000   0.00000   1.01647
  19        1PY         0.00000   0.00000   0.00000   0.93678
  20        1PZ         0.00000   0.00000   0.00000   0.00000   0.87207
  21 6   C  1S          0.00000   0.00000   0.00000   0.00000   0.00000
  22        1PX         0.00000   0.00000   0.00000   0.00000   0.00000
  23        1PY         0.00000   0.00000   0.00000   0.00000   0.00000
  24        1PZ         0.00000   0.00000   0.00000   0.00000   0.00000
  25 7   C  1S          0.00000   0.00000   0.00000   0.00000   0.00000
  26        1PX         0.00000   0.00000   0.00000   0.00000   0.00000
  27        1PY         0.00000   0.00000   0.00000   0.00000   0.00000
  28        1PZ         0.00000   0.00000   0.00000   0.00000   0.00000
  29 8   H  1S          0.00000   0.00000   0.00000   0.00000   0.00000
  30 9   H  1S          0.00000   0.00000   0.00000   0.00000   0.00000
  31 10  H  1S          0.00000   0.00000   0.00000   0.00000   0.00000
  32 11  H  1S          0.00000   0.00000   0.00000   0.00000   0.00000
  33 12  H  1S          0.00000   0.00000   0.00000   0.00000   0.00000
  34 13  H  1S          0.00000   0.00000   0.00000   0.00000   0.00000
  35 14  C  1S          0.00000   0.00000   0.00000   0.00000   0.00000
  36        1PX         0.00000   0.00000   0.00000   0.00000   0.00000
  37        1PY         0.00000   0.00000   0.00000   0.00000   0.00000
  38        1PZ         0.00000   0.00000   0.00000   0.00000   0.00000
  39 15  H  1S          0.00000   0.00000   0.00000   0.00000   0.00000
  40 16  H  1S          0.00000   0.00000   0.00000   0.00000   0.00000
  41 17  H  1S          0.00000   0.00000   0.00000   0.00000   0.00000
                          21        22        23        24        25
  21 6   C  1S          1.22132
  22        1PX         0.00000   0.95879
  23        1PY         0.00000   0.00000   0.99020
  24        1PZ         0.00000   0.00000   0.00000   0.89223
  25 7   C  1S          0.00000   0.00000   0.00000   0.00000   1.22212
  26        1PX         0.00000   0.00000   0.00000   0.00000   0.00000
  27        1PY         0.00000   0.00000   0.00000   0.00000   0.00000
  28        1PZ         0.00000   0.00000   0.00000   0.00000   0.00000
  29 8   H  1S          0.00000   0.00000   0.00000   0.00000   0.00000
  30 9   H  1S          0.00000   0.00000   0.00000   0.00000   0.00000
  31 10  H  1S          0.00000   0.00000   0.00000   0.00000   0.00000
  32 11  H  1S          0.00000   0.00000   0.00000   0.00000   0.00000
  33 12  H  1S          0.00000   0.00000   0.00000   0.00000   0.00000
  34 13  H  1S          0.00000   0.00000   0.00000   0.00000   0.00000
  35 14  C  1S          0.00000   0.00000   0.00000   0.00000   0.00000
  36        1PX         0.00000   0.00000   0.00000   0.00000   0.00000
  37        1PY         0.00000   0.00000   0.00000   0.00000   0.00000
  38        1PZ         0.00000   0.00000   0.00000   0.00000   0.00000
  39 15  H  1S          0.00000   0.00000   0.00000   0.00000   0.00000
  40 16  H  1S          0.00000   0.00000   0.00000   0.00000   0.00000
  41 17  H  1S          0.00000   0.00000   0.00000   0.00000   0.00000
                          26        27        28        29        30
  26        1PX         0.91649
  27        1PY         0.00000   1.03628
  28        1PZ         0.00000   0.00000   0.84880
  29 8   H  1S          0.00000   0.00000   0.00000   0.82623
  30 9   H  1S          0.00000   0.00000   0.00000   0.00000   0.82460
  31 10  H  1S          0.00000   0.00000   0.00000   0.00000   0.00000
  32 11  H  1S          0.00000   0.00000   0.00000   0.00000   0.00000
  33 12  H  1S          0.00000   0.00000   0.00000   0.00000   0.00000
  34 13  H  1S          0.00000   0.00000   0.00000   0.00000   0.00000
  35 14  C  1S          0.00000   0.00000   0.00000   0.00000   0.00000
  36        1PX         0.00000   0.00000   0.00000   0.00000   0.00000
  37        1PY         0.00000   0.00000   0.00000   0.00000   0.00000
  38        1PZ         0.00000   0.00000   0.00000   0.00000   0.00000
  39 15  H  1S          0.00000   0.00000   0.00000   0.00000   0.00000
  40 16  H  1S          0.00000   0.00000   0.00000   0.00000   0.00000
  41 17  H  1S          0.00000   0.00000   0.00000   0.00000   0.00000
                          31        32        33        34        35
  31 10  H  1S          0.82307
  32 11  H  1S          0.00000   0.82278
  33 12  H  1S          0.00000   0.00000   0.82563
  34 13  H  1S          0.00000   0.00000   0.00000   0.82486
  35 14  C  1S          0.00000   0.00000   0.00000   0.00000   1.21442
  36        1PX         0.00000   0.00000   0.00000   0.00000   0.00000
  37        1PY         0.00000   0.00000   0.00000   0.00000   0.00000
  38        1PZ         0.00000   0.00000   0.00000   0.00000   0.00000
  39 15  H  1S          0.00000   0.00000   0.00000   0.00000   0.00000
  40 16  H  1S          0.00000   0.00000   0.00000   0.00000   0.00000
  41 17  H  1S          0.00000   0.00000   0.00000   0.00000   0.00000
                          36        37        38        39        40
  36        1PX         0.85815
  37        1PY         0.00000   1.07580
  38        1PZ         0.00000   0.00000   1.06418
  39 15  H  1S          0.00000   0.00000   0.00000   0.87144
  40 16  H  1S          0.00000   0.00000   0.00000   0.00000   0.87117
  41 17  H  1S          0.00000   0.00000   0.00000   0.00000   0.00000
                          41
  41 17  H  1S          0.88237
     Gross orbital populations:
                           1
   1 1   C  1S          1.22192
   2        1PX         0.96252
   3        1PY         0.98925
   4        1PZ         0.88938
   5 2   C  1S          1.22142
   6        1PX         0.91523
   7        1PY         1.03689
   8        1PZ         0.85552
   9 3   C  1S          1.22175
  10        1PX         1.01470
  11        1PY         0.93885
  12        1PZ         0.86468
  13 4   C  1S          1.22109
  14        1PX         1.00121
  15        1PY         0.91322
  16        1PZ         0.81490
  17 5   C  1S          1.22121
  18        1PX         1.01647
  19        1PY         0.93678
  20        1PZ         0.87207
  21 6   C  1S          1.22132
  22        1PX         0.95879
  23        1PY         0.99020
  24        1PZ         0.89223
  25 7   C  1S          1.22212
  26        1PX         0.91649
  27        1PY         1.03628
  28        1PZ         0.84880
  29 8   H  1S          0.82623
  30 9   H  1S          0.82460
  31 10  H  1S          0.82307
  32 11  H  1S          0.82278
  33 12  H  1S          0.82563
  34 13  H  1S          0.82486
  35 14  C  1S          1.21442
  36        1PX         0.85815
  37        1PY         1.07580
  38        1PZ         1.06418
  39 15  H  1S          0.87144
  40 16  H  1S          0.87117
  41 17  H  1S          0.88237
          Condensed to atoms (all electrons):
               1          2          3          4          5          6
     1  C    4.063076   0.000000   0.000000   0.000000   0.000000   0.000000
     2  C    0.000000   4.029051   0.000000   0.000000   0.000000   0.000000
     3  C    0.000000   0.000000   4.039990   0.000000   0.000000   0.000000
     4  C    0.000000   0.000000   0.000000   3.950416   0.000000   0.000000
     5  C    0.000000   0.000000   0.000000   0.000000   4.046533   0.000000
     6  C    0.000000   0.000000   0.000000   0.000000   0.000000   4.062538
     7  C    0.000000   0.000000   0.000000   0.000000   0.000000   0.000000
     8  H    0.000000   0.000000   0.000000   0.000000   0.000000   0.000000
     9  H    0.000000   0.000000   0.000000   0.000000   0.000000   0.000000
    10  H    0.000000   0.000000   0.000000   0.000000   0.000000   0.000000
    11  H    0.000000   0.000000   0.000000   0.000000   0.000000   0.000000
    12  H    0.000000   0.000000   0.000000   0.000000   0.000000   0.000000
    13  H    0.000000   0.000000   0.000000   0.000000   0.000000   0.000000
    14  C    0.000000   0.000000   0.000000   0.000000   0.000000   0.000000
    15  H    0.000000   0.000000   0.000000   0.000000   0.000000   0.000000
    16  H    0.000000   0.000000   0.000000   0.000000   0.000000   0.000000
    17  H    0.000000   0.000000   0.000000   0.000000   0.000000   0.000000
               7          8          9         10         11         12
     1  C    0.000000   0.000000   0.000000   0.000000   0.000000   0.000000
     2  C    0.000000   0.000000   0.000000   0.000000   0.000000   0.000000
     3  C    0.000000   0.000000   0.000000   0.000000   0.000000   0.000000
     4  C    0.000000   0.000000   0.000000   0.000000   0.000000   0.000000
     5  C    0.000000   0.000000   0.000000   0.000000   0.000000   0.000000
     6  C    0.000000   0.000000   0.000000   0.000000   0.000000   0.000000
     7  C    4.023699   0.000000   0.000000   0.000000   0.000000   0.000000
     8  H    0.000000   0.826227   0.000000   0.000000   0.000000   0.000000
     9  H    0.000000   0.000000   0.824604   0.000000   0.000000   0.000000
    10  H    0.000000   0.000000   0.000000   0.823070   0.000000   0.000000
    11  H    0.000000   0.000000   0.000000   0.000000   0.822783   0.000000
    12  H    0.000000   0.000000   0.000000   0.000000   0.000000   0.825625
    13  H    0.000000   0.000000   0.000000   0.000000   0.000000   0.000000
    14  C    0.000000   0.000000   0.000000   0.000000   0.000000   0.000000
    15  H    0.000000   0.000000   0.000000   0.000000   0.000000   0.000000
    16  H    0.000000   0.000000   0.000000   0.000000   0.000000   0.000000
    17  H    0.000000   0.000000   0.000000   0.000000   0.000000   0.000000
              13         14         15         16         17
     1  C    0.000000   0.000000   0.000000   0.000000   0.000000
     2  C    0.000000   0.000000   0.000000   0.000000   0.000000
     3  C    0.000000   0.000000   0.000000   0.000000   0.000000
     4  C    0.000000   0.000000   0.000000   0.000000   0.000000
     5  C    0.000000   0.000000   0.000000   0.000000   0.000000
     6  C    0.000000   0.000000   0.000000   0.000000   0.000000
     7  C    0.000000   0.000000   0.000000   0.000000   0.000000
     8  H    0.000000   0.000000   0.000000   0.000000   0.000000
     9  H    0.000000   0.000000   0.000000   0.000000   0.000000
    10  H    0.000000   0.000000   0.000000   0.000000   0.000000
    11  H    0.000000   0.000000   0.000000   0.000000   0.000000
    12  H    0.000000   0.000000   0.000000   0.000000   0.000000
    13  H    0.824856   0.000000   0.000000   0.000000   0.000000
    14  C    0.000000   4.212551   0.000000   0.000000   0.000000
    15  H    0.000000   0.000000   0.871439   0.000000   0.000000
    16  H    0.000000   0.000000   0.000000   0.871172   0.000000
    17  H    0.000000   0.000000   0.000000   0.000000   0.882370
 Mulliken charges:
               1
     1  C   -0.063076
     2  C   -0.029051
     3  C   -0.039990
     4  C    0.049584
     5  C   -0.046533
     6  C   -0.062538
[...]
   yxz       -0.480405D+00     -0.415032D-02     -0.154035D-02
   yyz       -0.193237D+02     -0.166941D+00     -0.619587D-01
   zxz       -0.762988D+01     -0.659163D-01     -0.244642D-01
   zyz       -0.669825D+02     -0.578677D+00     -0.214770D+00
   zzz        0.487612D+03      0.421259D+01      0.156346D+01

 ----------------------------------------------------------------------
 1\1\GINC-IISERK51\Freq\RAM1\ZDO\C8H9(1+)\GAUSSIAN\12-Jun-2025\0\\#N Ge
 om=AllCheck Guess=TCheck SCRF=Check GenChk RAM1/ZDO Freq\\Optimisation
 \\1,1\C,0.5417433612,1.2424013525,0.0000249391\C,-0.8058147926,1.55872
 0619,0.0000586476\C,-1.9081501816,0.705178098,-0.0001243908\C,1.162436
 453,-0.0136643666,-0.0001539833\C,-1.9190139288,-0.6793499486,-0.00002
 03333\C,0.5233178377,-1.2582428859,-0.0000592187\C,-0.8309724265,-1.55
 03399539,0.0000788674\H,1.2377047617,2.1146250673,0.0001566667\H,-1.04
 49907108,2.6483000837,0.0002036396\H,-2.9052770184,1.2034814928,-0.000
 3246638\H,-2.9240450104,-1.1615383974,-0.0000032531\H,1.1992140044,-2.
 1459600167,-0.0000654767\H,-1.0882795789,-2.6359133071,0.0002260476\C,
 2.6526616417,-0.0072557624,0.000145958\H,3.0337142883,0.5420219263,-0.
 9000318024\H,3.0322430659,0.5197462853,0.9142811791\H,3.081074234,-1.0
 398652862,-0.0121828229\\Version=EM64L-G16RevB.01\State=1-A\HF=0.31995
 84\RMSD=8.713e-10\RMSF=1.633e-04\ZeroPoint=0.1456931\Thermal=0.1520869
 \Dipole=-0.4420498,0.0305112,0.0014067\DipoleDeriv=-0.4815831,0.104981
 6,-0.0008443,0.3474795,-0.0773705,0.0007427,0.0000526,0.0001842,-0.085
 889,0.1598724,-0.0009254,0.0011007,0.0202381,0.0486299,0.0001304,-0.00
 00015,0.0002073,-0.0155849,-0.152374,-0.1134077,-0.0004742,-0.3969331,
 -0.1878749,-0.0010326,0.0000163,-0.0001243,-0.0318489,0.8263856,0.0447
 881,0.0023772,0.0499451,-0.1506436,0.0000647,0.0015339,0.0000027,0.101
 4606,-0.1581787,0.1052766,-0.0005044,0.405217,-0.1866987,0.0010609,-0.
 0000756,0.0001068,-0.0410981,-0.5069241,-0.1350324,-0.0009027,-0.36240
 65,-0.1005452,-0.0007569,0.000092,-0.0001479,-0.0725637,0.1890506,0.03
 2208,0.0011775,-0.0255113,0.0528769,-0.000165,0.0000105,-0.0002069,0.0
 027965,0.1682896,0.1336377,0.0000781,0.1257655,0.2499947,0.0000074,0.0
 00084,0.0000621,0.1608181,0.0846069,-0.0631184,0.0000129,-0.0798118,0.
 3583514,-0.0000031,-0.0000241,0.0000206,0.1636316,0.3305279,-0.125389,
 0.0000597,-0.1273599,0.1327193,-0.0000324,0.0000545,-0.0000536,0.16622
 14,0.3339037,0.1234945,0.0000258,0.1240687,0.1292974,0.0000244,-0.0000
 316,0.000033,0.1656407,0.1648589,-0.1311341,0.0000685,-0.1226718,0.255
 6424,0.0000082,0.0000664,-0.0000289,0.1649106,0.087127,0.0689308,0.000
 0252,0.0837725,0.3575202,0.,-0.0000115,-0.0000195,0.1603992,-0.4059182
 ,-0.0523089,-0.0024076,-0.1605395,-0.1886439,-0.000075,-0.0062479,-0.0
 000395,-0.2437165,0.1206699,0.035617,-0.0466178,0.0886546,0.1014376,-0
 .0035899,-0.0766347,-0.0187422,0.1514735,0.1204001,0.034223,0.0474103,
 0.0867049,0.1015743,0.0033811,0.0808305,0.018118,0.152701,0.1192654,-0
 .0618929,-0.000585,-0.0565776,0.1037395,0.0002351,0.0002991,0.0006334,
 0.1006473\Polar=109.7167194,0.8608985,93.3385747,0.0386609,0.0002888,1
 8.6231685\HyperPolar=-497.7419451,-30.1781564,25.8323542,-5.9992804,-1
 .4037359,0.0193202,-0.3088293,8.7213566,11.2714845,0.5808004\PG=C01 [X
 (C8H9)]\NImag=1\\0.80855194,-0.10229206,0.71004813,-0.00001665,0.00006
 441,0.15907198,-0.39516016,0.02637329,-0.00000571,0.84838923,0.1155920
 1,-0.10828895,-0.00000496,0.03510396,0.65851853,0.00000648,-0.00000192
 ,-0.07293453,0.00003349,0.00007220,0.15939063,-0.09089207,0.00142761,-
 0.00000265,-0.27601274,-0.18854946,-0.00004198,0.68875244,-0.06442100,
 0.04667948,0.00000583,-0.09685242,-0.20130514,-0.00003117,0.06803177,0
 .82089692,-0.00000664,-0.00000161,0.00748222,-0.00003826,-0.00003402,-
 0.07544809,0.00008547,-0.00002278,0.15870274,-0.13048540,0.14424534,0.
 00001773,-0.05152761,0.03720029,0.00000070,0.00760950,0.01700368,0.000
 00147,0.70185962,0.07650129,-0.32424638,-0.00004104,0.09357277,-0.0066
 8098,-0.00001097,-0.01386371,-0.01770875,-0.00000089,0.00526477,0.8364
 3568,0.00004542,-0.00007128,-0.07748078,-0.00003618,-0.00000682,0.0056
 4025,0.00001781,0.00003751,-0.00340316,-0.00003344,0.00001863,0.192213
 19,-0.00979009,0.00475109,0.00000103,0.02446498,-0.02768073,-0.0000010
 1,-0.09220281,-0.04892863,0.00000141,0.00753965,0.01425486,0.00001784,
 0.68666380,0.02748310,-0.01778207,-0.00000202,-0.09456864,-0.06919695,
 -0.00000439,0.04377700,-0.41115389,0.00003688,-0.01739496,-0.01971219,
 -0.00003861,-0.06621407,0.82291517,-0.00000222,0.00000118,-0.00274073,
 0.00000230,-0.00000137,0.00738981,-0.00000070,0.00002722,-0.07391195,0
 .00000163,0.00000113,-0.00328835,0.00002158,-0.00005319,0.15845521,0.0
 4114264,-0.02384737,-0.00000846,-0.00900123,0.00192527,0.00000293,-0.0
 0997657,-0.02725724,-0.00000120,-0.13601491,-0.07783522,0.00003912,-0.
 08921882,0.06652031,-0.00000188,0.80498265,0.02130882,-0.08695019,-0.0
 0001030,-0.01096478,-0.00076920,0.00000269,-0.00462872,-0.01697206,-0.
 00000073,-0.14940873,-0.32273987,0.00005413,0.00099032,0.04535101,-0.0
 0000125,0.09926177,0.71161116,-0.00000668,0.00000330,0.00803954,-0.000
 00004,-0.00000060,-0.00221758,0.00000242,0.00000592,-0.00277551,0.0000
 0398,0.00002156,-0.07783655,0.00000600,-0.00001158,0.00757753,-0.00005
 590,-0.00001972,0.15838232,-0.00817692,0.01081680,0.00000348,-0.029829
 46,-0.01102536,-0.00000382,0.02621133,0.09308136,0.00000073,-0.0537906
 5,-0.09542816,-0.00003872,-0.27218374,0.09836431,-0.00001769,-0.394291
 71,-0.02044993,0.00002066,0.84602967,-0.00200478,-0.00079827,-0.000000
 25,0.01169967,0.00269165,0.00000073,0.02610893,-0.07139962,0.00000623,
 -0.03675698,-0.00453096,0.00000836,0.19005224,-0.20607143,0.00001570,-
 0.10936268,-0.10535246,0.00001414,-0.04002934,0.65943876,0.00000446,-0
 .00000385,-0.00225279,-0.00000430,-0.00000099,-0.00335868,-0.00000189,
 0.00000881,0.00734007,0.00000226,0.00001420,0.00520323,-0.00002426,0.0
 0001610,-0.07543431,0.00003368,0.00000596,-0.07331892,-0.00002398,-0.0
 0006673,0.15973782,-0.13466695,-0.12370040,-0.00001514,-0.03539851,-0.
 02059448,-0.00000415,-0.00339963,0.00015797,0.00000134,0.00974527,0.00
 692203,0.00000390,-0.00074743,0.00143985,-0.00000006,-0.00226958,0.000
 52378,-0.00000212,0.00152300,-0.00044165,-0.00000032,0.16894534,-0.124
 72791,-0.19163285,-0.00002057,-0.00373238,0.00470090,-0.00000141,0.000
 49062,-0.00143296,-0.00000050,-0.00985042,-0.03883352,-0.00000454,-0.0
 0078358,0.00154201,-0.00000017,0.00044015,-0.00311304,-0.00000086,0.00
 178239,-0.00050899,-0.00000012,0.13338482,0.23166234,-0.00001517,-0.00
 002476,-0.04823771,-0.00000671,-0.00000033,0.00859505,0.00000188,0.000
 00172,0.00633547,0.00000464,-0.00000040,0.00936438,0.00000030,-0.00000
 086,0.00022254,-0.00000068,-0.00000337,0.00544996,0.00000188,0.0000004
 0,0.00034829,0.00000665,0.00004183,0.02445187,-0.01788709,0.03177438,0
 .00000323,-0.04760054,0.05342503,0.00000673,0.00071251,-0.02557190,-0.
 00000376,-0.00342851,0.00046959,-0.00000127,-0.00263339,-0.00125148,-0
 .00000043,-0.00028469,-0.00017503,0.,0.00025123,-0.00004367,-0.0000000
 6,-0.00170133,0.00090940,0.00000017,0.07320664,0.01456176,-0.01247732,
 -0.00000250,0.05372622,-0.27978720,-0.00003080,-0.00867230,-0.03113752
 ,-0.00000581,0.00081887,-0.00146991,-0.00000020,-0.00110221,-0.0018055
 0,-0.00000117,0.00137660,0.00103370,-0.00000029,-0.00166437,0.00031549
 ,0.00000006,0.00041140,0.00096112,0.00000062,-0.05817286,0.32496499,0.
 00000648,-0.00000185,0.00839736,0.00000041,-0.00003156,-0.04804338,0.0
 0000197,-0.00000281,0.00889238,-0.00000100,0.00000084,0.00684426,-0.00
 000016,-0.00000364,0.00559935,0.00000168,0.00000087,0.00005183,-0.0000
 0257,0.00000082,0.00017148,-0.00000072,0.00000035,-0.00179599,-0.00000
 594,0.00004038,0.02442509,-0.00224833,-0.00121140,-0.00000153,-0.03740
 074,0.00104691,-0.00000792,-0.24129586,0.10298674,-0.00003833,-0.00065
 340,-0.00185864,-0.00000134,-0.00176601,0.01039189,-0.00000270,0.00164
 723,0.00130757,-0.00000033,-0.00160999,-0.00005564,-0.00000106,-0.0004
 1165,0.00000645,0.00000040,-0.00067721,-0.00113599,0.00000005,0.283122
 61,-0.00132195,-0.00201084,-0.00000023,-0.01593926,0.00698171,-0.00000
 217,0.10260643,-0.08753527,0.00001947,0.00029602,0.00082592,0.00000059
 ,0.02783839,-0.02814176,0.00000610,-0.00083132,-0.00066983,0.00000017,
 0.00023748,-0.00349304,0.00000071,-0.00032088,0.00023769,0.00000013,-0
 .00158036,0.00002149,-0.00000050,-0.11162550,0.11580676,-0.00000268,0.
 00000026,0.00545905,-0.00000413,0.00000149,0.00868955,-0.00004027,0.00
 001842,-0.04796840,0.00000107,-0.00000090,0.00044816,-0.00000276,0.000
 00365,0.00859362,0.00000070,0.00000035,0.00008773,-0.00000097,0.000000
 84,0.00647917,0.00000018,0.00000020,-0.00101852,-0.00000040,0.,-0.0014
 3485,0.00005057,-0.00002382,0.02446231,0.00159086,-0.00131379,-0.00000
 027,-0.00155279,0.00004292,0.00000012,-0.00241674,-0.01088528,0.000000
 58,-0.00062106,0.00178139,-0.00000118,-0.24452765,-0.10042472,0.000003
 10,-0.00218173,0.00123282,-0.00000045,-0.03723637,-0.00031469,-0.00000
 138,-0.00009622,-0.00017086,-0.00000016,0.00014718,-0.00013743,0.00000
 001,0.00108489,0.00018096,0.00000005,0.28669478,0.00077674,-0.00065092
 ,-0.00000013,-0.00023653,-0.00347744,0.00000061,-0.02828015,-0.0275929
 1,0.00000208,-0.00027337,0.00075711,-0.00000044,-0.10006611,-0.0842405
 6,0.00000138,0.00130646,-0.00204283,0.00000080,0.01665667,0.00673316,0
 .00000090,-0.00004989,-0.00004727,-0.00000011,-0.00045831,-0.00031556,
 -0.00000040,-0.00022391,-0.00166478,0.00000015,0.10886106,0.11228610,-
 0.00000153,0.00000109,0.00009417,0.00000141,0.00000159,0.00645632,0.00
 000130,-0.00000202,0.00854090,0.00000142,-0.00000061,0.00048636,0.0000
 0126,0.00000612,-0.04789419,-0.00000177,0.00000021,0.00549460,0.000000
 60,-0.00000205,0.00863878,-0.00000023,0.00000001,-0.00053648,0.0000003
 5,0.00000032,-0.00104409,0.00000056,0.00000016,-0.00175111,-0.00000200
 ,-0.00000497,0.02447001,-0.00230163,-0.00053675,-0.00000170,0.00140196
 ,0.00041783,-0.00000021,-0.00071193,-0.00129974,-0.00000009,0.00948033
 ,-0.00769608,0.00000320,-0.00333462,-0.00023591,0.00000225,-0.12845911
 ,0.12248121,0.00000375,-0.03511214,0.02133527,0.00000131,0.00032588,-0
 .00019584,-0.00000079,-0.00001778,0.00013607,0.00000040,-0.00009516,0.
 00005163,-0.00000029,-0.00040606,0.00032794,0.00000005,0.16380985,-0.0
 0043607,-0.00307714,0.00000018,-0.00179877,-0.00048236,0.00000002,0.00
 080608,0.00151609,0.00000022,0.00894781,-0.03878482,-0.00000081,-0.000
 47629,-0.00136779,-0.00000004,0.12334801,-0.19729995,-0.00000265,0.004
 63048,0.00417675,0.00000041,0.00017675,-0.00043834,-0.00000040,0.00003
 178,-0.00013591,-0.00000014,0.00017178,-0.00005096,0.00000007,0.000005
 08,0.00023144,-0.00000015,-0.13151599,0.23720458,-0.00000006,0.0000024
 5,0.00538503,0.00000139,-0.00000040,0.00033231,0.00000022,0.00000079,0
 .00023573,0.00000464,-0.00000260,0.00924593,0.00000242,-0.00000148,0.0
 0628802,0.00000365,0.00000092,-0.04786125,-0.00000177,-0.00000148,0.00
 855835,-0.00000077,0.00000053,-0.00107057,0.00000012,-0.00000004,-0.00
 043676,-0.00000002,0.00000002,-0.00053955,0.00000023,-0.00000024,-0.00
 099170,-0.00001712,-0.00000922,0.02408567,-0.00030816,0.00020435,0.,0.
 00029541,0.00004787,-0.00000003,-0.00259866,0.00125482,-0.00000020,-0.
 00348784,-0.00050632,-0.00000042,0.00125735,0.02504057,-0.00000265,-0.
 01863444,-0.03161290,0.00000511,-0.04943181,-0.05724972,0.00000762,-0.
 00001379,-0.00003341,0.00000008,0.00003620,-0.00005956,0.,0.00015626,0
 .00044995,0.00000003,-0.00063709,0.00159844,-0.00000028,-0.00177552,-0
 .00087403,0.00000017,0.07526262,-0.00137100,0.00108362,0.00000025,0.00
 171918,0.00030218,-0.00000007,0.00108380,-0.00192446,0.00000103,-0.000
 76559,-0.00152355,0.00000019,0.00809981,-0.03162196,0.00000492,-0.0144
 0792,-0.01164791,0.00000326,-0.05749245,-0.27780166,0.00003137,-0.0001
 3935,-0.00013432,0.00000003,0.00005608,-0.00019365,-0.00000007,0.00013
 086,-0.00032564,-0.00000010,0.00115172,-0.00002441,-0.00000022,-0.0003
 7252,0.00098924,-0.00000053,0.06226382,0.32275298,0.00000111,-0.000000
 70,0.00003946,-0.00000063,-0.00000014,0.00016652,-0.00000014,0.0000009
 2,0.00565108,0.00000086,-0.00000022,0.00693277,-0.00000121,0.00000458,
 0.00894633,0.00000506,0.00000289,0.00848959,0.00000662,0.00003069,-0.0
 4813333,0.00000041,0.00000010,-0.00044722,0.,0.00000013,-0.00042294,0.
 00000017,-0.00000007,-0.00106588,-0.00000010,-0.00000010,-0.00145085,-
 0.00000071,0.00000008,-0.00177328,-0.00001043,-0.00004070,0.02439935,-
 0.05330839,0.03358412,0.00000034,0.00862268,0.00236472,0.00000417,-0.0
 0375248,-0.00723430,-0.00000169,-0.27222287,-0.00052175,0.00000016,-0.
 00363197,0.00722846,-0.00000178,-0.05057734,-0.03147492,-0.00000040,0.
 00824732,-0.00232322,0.00000322,-0.00126454,0.00162291,-0.00000365,-0.
 00001067,-0.00022168,0.00000049,0.00026745,-0.00010741,-0.00000072,0.0
 0026130,0.00011151,-0.00000081,-0.00087805,-0.00119584,-0.00000365,0.0
 0001049,0.00019719,0.00000018,0.56472699,0.03621572,-0.00800865,0.0000
 4560,0.00509016,-0.00269146,0.00002050,-0.00156734,-0.00340885,-0.0000
 0330,0.00984605,-0.06356181,0.00000881,-0.00194165,0.00381139,0.000003
 03,-0.04187939,-0.01301383,-0.00004678,0.00335919,-0.00391909,-0.00002
 087,0.00140939,-0.00272479,-0.00001133,0.00060314,-0.00011068,-0.00000
 588,0.00017552,-0.00001042,-0.00000277,0.00006439,0.00008671,0.0000026
 0,-0.00236808,-0.00199409,0.00001050,-0.00047430,0.00008623,0.00000627
 ,-0.01679016,0.53865297,-0.00012374,0.00011796,0.00836315,0.00016621,0
 .00002289,0.00521237,-0.00006886,-0.00013988,0.00042605,0.00037122,0.0
 0000835,-0.07502855,-0.00006670,0.00014112,0.00016808,-0.00012618,-0.0
 0011579,0.01151458,0.00016628,-0.00002625,0.00648145,-0.00001486,-0.00
 000273,-0.00179050,0.00000273,-0.00000359,-0.00120350,0.00000491,-0.00
 000191,-0.00046698,0.00000487,0.00000175,-0.00061339,-0.00001459,0.000
 00330,-0.00199708,0.00000254,0.00000348,-0.00158797,-0.00058275,-0.000
 01574,0.48581814,-0.00153610,0.00015639,0.00011356,0.00044235,-0.00001
 021,-0.00065949,-0.00010396,-0.00022664,-0.00009402,-0.02791959,-0.015
 64651,0.02547261,-0.00004905,0.00013615,-0.00005635,-0.00190660,0.0005
 4423,-0.00056411,-0.00010200,-0.00046618,-0.00101495,-0.00024118,0.000
 48240,0.00034907,0.00001491,0.00005109,0.00020586,-0.00003597,0.000025
 78,0.00006402,-0.00003327,-0.00001099,0.00010026,-0.00007279,0.0000548
 8,0.00028709,-0.00008228,-0.00004796,0.00023753,-0.06217545,-0.0381763
 6,0.06555574,0.08198591,0.00264834,-0.00114850,0.00017235,-0.00196235,
 -0.00042710,-0.00011323,0.00077588,0.00159723,0.00004915,-0.00994173,0
 .00150991,0.00264996,0.00075711,-0.00159474,0.00004347,0.00139252,0.00
 116614,0.00008581,-0.00174285,0.00035933,-0.00000920,0.00044992,-0.000
 10998,-0.00005242,0.00000725,0.00008334,-0.00005662,-0.00007375,0.0000
 2674,0.00001130,-0.00006101,-0.00003262,-0.00000110,0.00004202,-0.0000
 6563,0.00006754,-0.00001036,-0.00004407,-0.00001319,-0.03718174,-0.097
 26985,0.09671827,0.04749483,0.11037719,-0.00059794,0.00051508,0.000162
 34,0.00083613,0.00015809,0.00001011,-0.00037771,-0.00073916,-0.0000396
 4,0.01136878,0.00304971,-0.00121344,-0.00032910,0.00072253,0.00000080,
 -0.00117710,-0.00058905,-0.00051446,0.00073797,-0.00027401,-0.00022310
 ,0.00028696,-0.00031935,0.00005548,-0.00000658,-0.00007068,0.00004419,
 0.00005524,-0.00003562,0.00001258,0.00006342,0.00003167,0.00004127,-0.
 00006329,0.00005279,0.00012025,-0.00001641,0.00005688,0.00010039,0.065
 35975,0.09643088,-0.19471311,-0.08101951,-0.11607253,0.22932391,-0.001
 50154,0.00016265,-0.00008366,0.00046464,0.00000149,0.00067861,-0.00011
 528,-0.00025043,0.00009392,-0.02787668,-0.01500508,-0.02584427,-0.0000
 6020,0.00016084,0.00005748,-0.00187456,0.00052530,0.00057625,-0.000070
 01,-0.00045768,0.00102591,-0.00021256,0.00044431,-0.00034200,0.0000139
 2,0.00005090,-0.00020977,-0.00003552,0.00002535,-0.00006597,-0.0000327
 1,-0.00001100,-0.00010115,-0.00007005,0.00005377,-0.00029083,-0.000079
 56,-0.00004820,-0.00024146,-0.06189694,-0.03646096,-0.06630021,0.00593
 393,0.00172691,0.00464054,0.08153432,0.00260545,-0.00114522,-0.0001893
 2,-0.00193819,-0.00042233,0.00010463,0.00076190,0.00156954,-0.00004541
 ,-0.00966180,0.00165160,-0.00261291,0.00074324,-0.00156325,-0.00004456
 ,0.00134253,0.00114106,-0.00005366,-0.00170186,0.00034676,0.00001843,0
 .00043627,-0.00009781,0.00004856,0.00000691,0.00008181,0.00005802,-0.0
 0007239,0.00002573,-0.00000992,-0.00005943,-0.00003213,-0.00000024,0.0
 0003654,-0.00006317,-0.00007032,-0.00001083,-0.00004249,0.00000901,-0.
 03540384,-0.09246262,-0.09418744,0.00183232,0.00734726,0.00811944,0.04
 536592,0.10463813,0.00070032,-0.00058078,0.00015648,-0.00091789,-0.000
 17423,0.00000935,0.00041329,0.00081156,-0.00004097,-0.01178997,-0.0030
 0502,-0.00140448,0.00036529,-0.00079778,-0.00000008,0.00125198,0.00065
 651,-0.00053028,-0.00083015,0.00028882,-0.00022319,-0.00026202,0.00030
 677,0.00005771,0.00000600,0.00007329,0.00004537,-0.00005856,0.00003709
 ,0.00001271,-0.00006652,-0.00003301,0.00004145,0.00006777,-0.00005630,
 0.00012089,0.00001527,-0.00006001,0.00010300,-0.06588571,-0.09389291,-
 0.19943985,-0.00454493,-0.00715774,-0.03162053,0.08187359,0.11301848,0
 .23507932,-0.00302208,-0.00059568,-0.00000362,-0.00059571,0.00069287,-
 0.00001464,0.00019223,0.00041121,-0.00000075,-0.02820805,0.02959436,0.
 00035674,0.00021933,-0.00045278,-0.00000189,-0.00308036,0.00054109,0.0
 0001185,-0.00042671,0.00030936,-0.00000628,-0.00011658,-0.00006886,0.0
 0000410,-0.00014175,0.00003354,0.00000282,-0.00004883,0.00001431,0.000
 00157,-0.00003738,-0.00002826,0.00000056,-0.00178374,-0.00192968,0.000
 01429,0.00003058,-0.00005762,0.00000274,-0.07241530,0.08289512,0.00102
 345,0.00588080,-0.00432108,0.00023890,0.00587846,-0.00428284,-0.000337
 85,0.09767479,-0.00111810,0.00040506,-0.00001731,0.00070822,0.00033487
 ,-0.00000522,-0.00030884,-0.00068855,-0.00000002,0.01043069,-0.0013855
 8,-0.00004256,-0.00029410,0.00063354,-0.00000238,-0.00149319,0.0002665
 3,0.00000117,0.00060650,-0.00018666,0.00000480,-0.00006520,-0.00003049
 ,0.00000071,-0.00003009,-0.00002883,0.00000220,0.00003948,-0.00002366,
 0.00000080,0.00004672,0.00002675,-0.00000074,-0.00060791,-0.00035802,0
 .00000356,-0.00002807,0.00007004,0.00000044,0.08734623,-0.25346068,-0.
 00252378,0.00380675,-0.02177468,0.00896331,0.00371586,-0.02097292,-0.0
 0943472,-0.10275510,0.29717339,0.00000880,-0.00001882,0.00099570,-0.00
 002714,-0.00000075,0.00010992,0.00000963,0.00001873,-0.00001929,0.0000
 4402,-0.00005181,0.00327622,0.00000786,-0.00001704,0.00002799,0.000034
 22,0.00001557,-0.00003299,-0.00001826,0.00000396,-0.00001432,0.0000009
 4,0.00000045,0.00001629,-0.00000087,0.00000027,-0.00008955,-0.00000010
 ,-0.00000008,0.00000056,-0.00000032,0.00000005,0.00001818,0.00002006,0
 .00001266,0.00029801,-0.00000037,0.00000028,0.00005321,0.00111286,-0.0
 0252864,-0.04114264,-0.00443240,0.02367816,-0.00154695,0.00453304,-0.0
 2416274,-0.00236680,-0.00129199,0.00304976,0.04041636\\0.00026621,-0.0
 0008460,-0.00000443,-0.00006125,-0.00012235,0.00000122,0.00014780,-0.0
 0012664,-0.00000181,-0.00073995,-0.00015533,0.00000917,0.00015736,0.00
 009992,0.00000223,0.00037901,0.00021758,-0.00000319,-0.00011535,0.0001
 7427,-0.00000160,0.00002934,0.00008743,0.00000051,-0.00003375,0.000111
 39,0.00000153,-0.00011657,0.00004491,-0.00000242,-0.00011587,-0.000039
 76,0.00000174,0.00002046,-0.00008274,-0.00000041,-0.00002716,-0.000123
 96,0.00000049,0.00050684,0.00006021,-0.00000278,-0.00011400,-0.0000640
 1,0.00005077,-0.00011540,-0.00006159,-0.00005115,-0.00006772,0.0000652
 8,0.00000016\\\@


 WORK FAITHFULLY FOR EIGHT HOURS A DAY AND DON'T WORRY.
 IN TIME YOU MAY BECOME BOSS AND WORK TWELVE HOURS A DAY
 AND HAVE ALL THE WORRY.
 Job cpu time:       0 days  0 hours  0 minutes  0.6 seconds.
 Elapsed time:       0 days  0 hours  0 minutes  0.5 seconds.
 File lengths (MBytes):  RWF=     15 Int=      0 D2E=      0 Chk=      2 Scr=      1
 Normal termination of Gaussian 16 at Thu Jun 12 22:34:44 2025.
