 Entering Gaussian System, Link 0=g16
 Input=/home/gaussian/Documents/Summer_Internship/Acid_Base_adduct/Base/NH3/nh3_sp.com
 Output=/home/gaussian/Documents/Summer_Internship/Acid_Base_adduct/Base/NH3/nh3_sp.log
 Initial command:
 /usr/local/g16/l1.exe "/home/gaussian/tmp/Gau-25539.inp" -scrdir="/home/gaussian/tmp/"
 Entering Link 1 = /usr/local/g16/l1.exe PID=     25542.
  
 Copyright (c) 1988-2017, Gaussian, Inc.  All Rights Reserved.
  
 This is part of the Gaussian(R) 16 program.  It is based on
 the Gaussian(R) 09 system (copyright 2009, Gaussian, Inc.),
 the Gaussian(R) 03 system (copyright 2003, Gaussian, Inc.),
 the Gaussian(R) 98 system (copyright 1998, Gaussian, Inc.),
 the Gaussian(R) 94 system (copyright 1995, Gaussian, Inc.),
 the Gaussian 92(TM) system (copyright 1992, Gaussian, Inc.),
 the Gaussian 90(TM) system (copyright 1990, Gaussian, Inc.),
 the Gaussian 88(TM) system (copyright 1988, Gaussian, Inc.),
 the Gaussian 86(TM) system (copyright 1986, Carnegie Mellon
 University), and the Gaussian 82(TM) system (copyright 1983,
 Carnegie Mellon University). Gaussian is a federally registered
 trademark of Gaussian, Inc.
  
 This software contains proprietary and confidential information,
 including trade secrets, belonging to Gaussian, Inc.
  
 This software is provided under written license and may be
 used, copied, transmitted, or stored only in accord with that
 written license.
  
 The following legend is applicable only to US Government
 contracts under FAR:
  
                    RESTRICTED RIGHTS LEGEND
  
 Use, reproduction and disclosure by the US Government is
 subject to restrictions as set forth in subparagraphs (a)
 and (c) of the Commercial Computer Software - Restricted
 Rights clause in FAR 52.227-19.
  
 Gaussian, Inc.
 340 Quinnipiac St., Bldg. 40, Wallingford CT 06492
  
  
 ---------------------------------------------------------------
 Warning -- This program may not be used in any manner that
 competes with the business of Gaussian, Inc. or will provide
 assistance to any competitor of Gaussian, Inc.  The licensee
 of this program is prohibited from giving any competitor of
 Gaussian, Inc. access to this program.  By using this program,
 the user acknowledges that Gaussian, Inc. is engaged in the
 business of creating and licensing software in the field of
 computational chemistry and represents and warrants to the
 licensee that it is not a competitor of Gaussian, Inc. and that
 it will not use this program in any manner prohibited above.
 ---------------------------------------------------------------
  

 Cite this work as:
 Gaussian 16, Revision B.01,
 M. J. Frisch, G. W. Trucks, H. B. Schlegel, G. E. Scuseria, 
 M. A. Robb, J. R. Cheeseman, G. Scalmani, V. Barone, 
 G. A. Petersson, H. Nakatsuji, X. Li, M. Caricato, A. V. Marenich, 
 J. Bloino, B. G. Janesko, R. Gomperts, B. Mennucci, H. P. Hratchian, 
 J. V. Ortiz, A. F. Izmaylov, J. L. Sonnenberg, D. Williams-Young, 
 F. Ding, F. Lipparini, F. Egidi, J. Goings, B. Peng, A. Petrone, 
 T. Henderson, D. Ranasinghe, V. G. Zakrzewski, J. Gao, N. Rega, 
 G. Zheng, W. Liang, M. Hada, M. Ehara, K. Toyota, R. Fukuda, 
 J. Hasegawa, M. Ishida, T. Nakajima, Y. Honda, O. Kitao, H. Nakai, 
 T. Vreven, K. Throssell, J. A. Montgomery, Jr., J. E. Peralta, 
 F. Ogliaro, M. J. Bearpark, J. J. Heyd, E. N. Brothers, K. N. Kudin, 
 V. N. Staroverov, T. A. Keith, R. Kobayashi, J. Normand, 
 K. Raghavachari, A. P. Rendell, J. C. Burant, S. S. Iyengar, 
 J. Tomasi, M. Cossi, J. M. Millam, M. Klene, C. Adamo, R. Cammi, 
 J. W. Ochterski, R. L. Martin, K. Morokuma, O. Farkas, 
 J. B. Foresman, and D. J. Fox, Gaussian, Inc., Wallingford CT, 2016.
 
 ******************************************
 Gaussian 16:  EM64L-G16RevB.01 20-Dec-2017
                13-Jun-2025 
 ******************************************
 %chk=nh3_sp.chk
 -------------------------------------
 # hf/3-21g pop=full geom=connectivity
 -------------------------------------
 1/38=1,57=2,172=1/1;
 2/12=2,17=6,18=5,40=1/2;
 3/5=5,11=9,25=1,30=1/1,2,3;
 4//1;
 5/5=2,38=5/2;
 6/7=3,28=1/1;
 99/5=1,9=1/99;
 -------------------
 Title Card Required
 -------------------
 Symbolic Z-matrix:
 Charge =  0 Multiplicity = 1
 N                     0.        0.        0.08489 
 H                     0.        0.9618   -0.19808 
 H                    -0.83295  -0.4809   -0.19808 
 H                     0.83295  -0.4809   -0.19808 
 
                          Input orientation:                          
 ---------------------------------------------------------------------
 Center     Atomic      Atomic             Coordinates (Angstroms)
 Number     Number       Type             X           Y           Z
 ---------------------------------------------------------------------
      1          7           0        0.000000    0.000000    0.084892
      2          1           0        0.000000    0.961804   -0.198082
      3          1           0       -0.832947   -0.480902   -0.198082
      4          1           0        0.832947   -0.480902   -0.198082
 ---------------------------------------------------------------------
                    Distance matrix (angstroms):
                    1          2          3          4
     1  N    0.000000
     2  H    1.002567   0.000000
     3  H    1.002568   1.665894   0.000000
     4  H    1.002568   1.665894   1.665894   0.000000
 Stoichiometry    H3N
 Framework group  C3V[C3(N),3SGV(H)]
 Deg. of freedom     2
 Full point group                 C3V     NOp   6
 Largest Abelian subgroup         CS      NOp   2
 Largest concise Abelian subgroup CS      NOp   2
                         Standard orientation:                         
 ---------------------------------------------------------------------
 Center     Atomic      Atomic             Coordinates (Angstroms)
 Number     Number       Type             X           Y           Z
 ---------------------------------------------------------------------
      1          7           0        0.000000    0.000000    0.084892
      2          1           0        0.000000    0.961804   -0.198082
      3          1           0       -0.832947   -0.480902   -0.198082
      4          1           0        0.832947   -0.480902   -0.198082
 ---------------------------------------------------------------------
 Rotational constants (GHZ):         316.3423521         316.3423521         180.6914670
 Standard basis: 3-21G (6D, 7F)
 There are    11 symmetry adapted cartesian basis functions of A'  symmetry.
 There are     4 symmetry adapted cartesian basis functions of A"  symmetry.
 There are    11 symmetry adapted basis functions of A'  symmetry.
 There are     4 symmetry adapted basis functions of A"  symmetry.
    15 basis functions,    24 primitive gaussians,    15 cartesian basis functions
     5 alpha electrons        5 beta electrons
       nuclear repulsion energy        12.0372257600 Hartrees.
 NAtoms=    4 NActive=    4 NUniq=    2 SFac= 4.00D+00 NAtFMM=   60 NAOKFM=F Big=F
 Integral buffers will be    131072 words long.
 Raffenetti 1 integral format.
 Two-electron integral symmetry is turned on.
 One-electron integrals computed using PRISM.
 NBasis=    15 RedAO= T EigKep=  7.10D-02  NBF=    11     4
 NBsUse=    15 1.00D-06 EigRej= -1.00D+00 NBFU=    11     4
 ExpMin= 1.83D-01 ExpMax= 2.43D+02 ExpMxC= 2.43D+02 IAcc=3 IRadAn=         5 AccDes= 0.00D+00
 Harris functional with IExCor=  205 and IRadAn=       5 diagonalized for initial guess.
 HarFok:  IExCor=  205 AccDes= 0.00D+00 IRadAn=         5 IDoV= 1 UseB2=F ITyADJ=14
 ICtDFT=  3500011 ScaDFX=  1.000000  1.000000  1.000000  1.000000
 FoFCou: FMM=F IPFlag=           0 FMFlag=      100000 FMFlg1=           0
         NFxFlg=           0 DoJE=T BraDBF=F KetDBF=T FulRan=T
         wScrn=  0.000000 ICntrl=       500 IOpCl=  0 I1Cent=   200000004 NGrid=           0
         NMat0=    1 NMatS0=      1 NMatT0=    0 NMatD0=    1 NMtDS0=    0 NMtDT0=    0
 Petite list used in FoFCou.
 Initial guess orbital symmetries:
       Occupied  (A1) (A1) (E) (E) (A1)
       Virtual   (A1) (E) (E) (E) (E) (A1) (A1) (E) (E) (A1)
 The electronic state of the initial guess is 1-A1.
 Keep R1 ints in memory in symmetry-blocked form, NReq=811288.
 Requested convergence on RMS density matrix=1.00D-08 within 128 cycles.
 Requested convergence on MAX density matrix=1.00D-06.
 Requested convergence on             energy=1.00D-06.
 No special actions if energy rises.
 SCF Done:  E(RHF) =  -55.8722034301     A.U. after   10 cycles
            NFock= 10  Conv=0.39D-09     -V/T= 2.0020

 **********************************************************************

            Population analysis using the SCF Density.

 **********************************************************************

 Orbital symmetries:
       Occupied  (A1) (A1) (E) (E) (A1)
       Virtual   (A1) (E) (E) (E) (E) (A1) (A1) (E) (E) (A1)
 The electronic state is 1-A1.
 Alpha  occ. eigenvalues --  -15.43154  -1.12014  -0.62032  -0.62032  -0.38901
 Alpha virt. eigenvalues --    0.27526   0.37736   0.37736   1.18638   1.18638
 Alpha virt. eigenvalues --    1.29006   1.41271   1.59869   1.59869   2.57464
     Molecular Orbital Coefficients:
                           1         2         3         4         5
                        (A1)--O   (A1)--O   (E)--O    (E)--O    (A1)--O
     Eigenvalues --   -15.43154  -1.12014  -0.62032  -0.62032  -0.38901
   1 1   N  1S          0.98547  -0.21745   0.00000   0.00000  -0.05859
   2        2S          0.09792   0.19932   0.00000  -0.00000   0.05754
   3        2PX         0.00000   0.00000   0.38138   0.00000   0.00000
   4        2PY         0.00000   0.00000   0.00000   0.38138   0.00000
   5        2PZ        -0.00285  -0.06530   0.00000  -0.00000   0.46866
   6        3S         -0.04943   0.65380   0.00000  -0.00000   0.25760
   7        3PX         0.00000   0.00000   0.34183   0.00000   0.00000
   8        3PY        -0.00000   0.00000   0.00000   0.34183   0.00000
   9        3PZ         0.00540  -0.06875   0.00000   0.00000   0.61826
  10 2   H  1S          0.00118   0.12201   0.00000   0.26719  -0.03904
  11        2S          0.00880   0.02430   0.00000   0.21777  -0.03683
  12 3   H  1S          0.00118   0.12201  -0.23139  -0.13359  -0.03904
  13        2S          0.00880   0.02430  -0.18860  -0.10889  -0.03683
  14 4   H  1S          0.00118   0.12201   0.23139  -0.13359  -0.03904
  15        2S          0.00880   0.02430   0.18860  -0.10889  -0.03683
                           6         7         8         9        10
                        (A1)--V   (E)--V    (E)--V    (E)--V    (E)--V
     Eigenvalues --     0.27526   0.37736   0.37736   1.18638   1.18638
   1 1   N  1S         -0.15093  -0.00000   0.00000   0.00000   0.00000
   2        2S          0.03630   0.00000   0.00000   0.00000  -0.00000
   3        2PX         0.00000   0.00000   0.29389  -0.07299   0.00000
   4        2PY         0.00000  -0.29389   0.00000   0.00000   0.07299
   5        2PZ        -0.11044  -0.00000   0.00000   0.00000   0.00000
   6        3S          1.59202   0.00000   0.00000   0.00000  -0.00000
   7        3PX         0.00000   0.00000   1.02459   0.79081   0.00000
   8        3PY         0.00000  -1.02459   0.00000   0.00000  -0.79081
   9        3PZ        -0.31960  -0.00000   0.00000   0.00000  -0.00000
  10 2   H  1S         -0.03512   0.03759   0.00000   0.00000   1.09161
  11        2S         -0.80117   1.49769   0.00000   0.00000  -0.52549
  12 3   H  1S         -0.03512  -0.01880   0.03256   0.94537  -0.54581
  13        2S         -0.80117  -0.74884   1.29704  -0.45509   0.26274
  14 4   H  1S         -0.03512  -0.01880  -0.03256  -0.94537  -0.54581
  15        2S         -0.80117  -0.74884  -1.29704   0.45509   0.26274
                          11        12        13        14        15
                        (A1)--V   (A1)--V   (E)--V    (E)--V    (A1)--V
     Eigenvalues --     1.29006   1.41271   1.59869   1.59869   2.57464
   1 1   N  1S          0.10073  -0.02016   0.00000  -0.00000   0.03355
   2        2S         -0.10409   0.02605   0.00000  -0.00000  -1.78945
   3        2PX         0.00000   0.00000  -1.11812   0.00000   0.00000
   4        2PY        -0.00000  -0.00000   0.00000  -1.11812  -0.00000
   5        2PZ         0.06708   1.06276   0.00000  -0.00000   0.07719
   6        3S         -0.25677   0.20930   0.00000  -0.00000   2.57174
   7        3PX         0.00000   0.00000   1.41380   0.00000   0.00000
   8        3PY         0.00000   0.00000   0.00000   1.41380   0.00000
   9        3PZ         0.24750  -1.01880   0.00000   0.00000  -0.33056
  10 2   H  1S          0.79429  -0.02419   0.00000   0.18873  -0.19830
  11        2S         -0.33644  -0.11372   0.00000  -0.92531  -0.45672
  12 3   H  1S          0.79429  -0.02419  -0.16344  -0.09436  -0.19830
  13        2S         -0.33644  -0.11372   0.80135   0.46266  -0.45672
  14 4   H  1S          0.79429  -0.02419   0.16344  -0.09436  -0.19830
  15        2S         -0.33644  -0.11372  -0.80135   0.46266  -0.45672
     Density Matrix:
                           1         2         3         4         5
   1 1   N  1S          2.04372
   2        2S          0.09956   0.10525
   3        2PX        -0.00000  -0.00000   0.29090
   4        2PY         0.00000   0.00000  -0.00000   0.29090
   5        2PZ        -0.03214   0.02734   0.00000  -0.00000   0.44782
   6        3S         -0.41193   0.28060  -0.00000   0.00000   0.15635
   7        3PX         0.00000  -0.00000   0.26074  -0.00000  -0.00000
   8        3PY        -0.00000   0.00000   0.00000   0.26074   0.00000
   9        3PZ        -0.03191   0.04480  -0.00000   0.00000   0.58845
  10 2   H  1S         -0.04617   0.04438   0.00000   0.20380  -0.05253
  11        2S          0.01110   0.00717   0.00000   0.16611  -0.03775
  12 3   H  1S         -0.04617   0.04438  -0.17650  -0.10190  -0.05253
  13        2S          0.01110   0.00717  -0.14386  -0.08306  -0.03775
  14 4   H  1S         -0.04617   0.04438   0.17650  -0.10190  -0.05253
  15        2S          0.01110   0.00717   0.14386  -0.08306  -0.03775
                           6         7         8         9        10
   6        3S          0.99251
   7        3PX        -0.00000   0.23370
   8        3PY         0.00000   0.00000   0.23370
   9        3PZ         0.22810   0.00000   0.00000   0.77401
  10 2   H  1S          0.13932   0.00000   0.18267  -0.06504   0.17560
  11        2S          0.01193   0.00000   0.14889  -0.04879   0.12520
  12 3   H  1S          0.13932  -0.15819  -0.09133  -0.06504  -0.03856
  13        2S          0.01193  -0.12894  -0.07444  -0.04879  -0.04936
  14 4   H  1S          0.13932   0.15819  -0.09133  -0.06504  -0.03856
  15        2S          0.01193   0.12894  -0.07444  -0.04879  -0.04936
                          11        12        13        14        15
  11        2S          0.09890
  12 3   H  1S         -0.04936   0.17560
  13        2S         -0.04338   0.12520   0.09890
  14 4   H  1S         -0.04936  -0.03856  -0.04936   0.17560
  15        2S         -0.04338  -0.04936  -0.04338   0.12520   0.09890
    Full Mulliken population analysis:
                           1         2         3         4         5
   1 1   N  1S          2.04372
   2        2S          0.01941   0.10525
   3        2PX         0.00000   0.00000   0.29090
   4        2PY         0.00000   0.00000   0.00000   0.29090
   5        2PZ         0.00000   0.00000   0.00000   0.00000   0.44782
   6        3S         -0.07589   0.21106   0.00000   0.00000   0.00000
   7        3PX         0.00000   0.00000   0.13454   0.00000   0.00000
   8        3PY         0.00000   0.00000   0.00000   0.13454   0.00000
   9        3PZ         0.00000   0.00000   0.00000   0.00000   0.30364
  10 2   H  1S         -0.00105   0.00807   0.00000   0.04910   0.00372
  11        2S          0.00079   0.00251   0.00000   0.02601   0.00174
  12 3   H  1S         -0.00105   0.00807   0.03683   0.01228   0.00372
  13        2S          0.00079   0.00251   0.01951   0.00650   0.00174
  14 4   H  1S         -0.00105   0.00807   0.03683   0.01228   0.00372
  15        2S          0.00079   0.00251   0.01951   0.00650   0.00174
                           6         7         8         9        10
   6        3S          0.99251
   7        3PX         0.00000   0.23370
   8        3PY         0.00000   0.00000   0.23370
   9        3PZ         0.00000   0.00000   0.00000   0.77401
  10 2   H  1S          0.05056   0.00000   0.09669   0.01013   0.17560
  11        2S          0.00772   0.00000   0.07325   0.00706   0.08087
  12 3   H  1S          0.05056   0.07252   0.02417   0.01013  -0.00054
  13        2S          0.00772   0.05494   0.01831   0.00706  -0.00713
  14 4   H  1S          0.05056   0.07252   0.02417   0.01013  -0.00054
  15        2S          0.00772   0.05494   0.01831   0.00706  -0.00713
                          11        12        13        14        15
  11        2S          0.09890
  12 3   H  1S         -0.00713   0.17560
  13        2S         -0.01750   0.08087   0.09890
  14 4   H  1S         -0.00713  -0.00054  -0.00713   0.17560
  15        2S         -0.01750  -0.00713  -0.01750   0.08087   0.09890
     Gross orbital populations:
                           1
   1 1   N  1S          1.98645
   2        2S          0.36749
   3        2PX         0.53811
   4        2PY         0.53811
   5        2PZ         0.76785
   6        3S          1.30253
   7        3PX         0.62316
   8        3PY         0.62316
   9        3PZ         1.12922
  10 2   H  1S          0.45837
  11        2S          0.24960
  12 3   H  1S          0.45837
  13        2S          0.24960
  14 4   H  1S          0.45837
  15        2S          0.24960
          Condensed to atoms (all electrons):
               1          2          3          4
     1  N    6.867129   0.336323   0.336323   0.336323
     2  H    0.336323   0.436235  -0.032295  -0.032295
     3  H    0.336323  -0.032295   0.436235  -0.032295
     4  H    0.336323  -0.032295  -0.032295   0.436235
 Mulliken charges:
               1
     1  N   -0.876099
     2  H    0.292033
     3  H    0.292033
     4  H    0.292033
 Sum of Mulliken charges =  -0.00000
 Mulliken charges with hydrogens summed into heavy atoms:
               1
     1  N   -0.000000
 Electronic spatial extent (au):  <R**2>=             25.4944
 Charge=             -0.0000 electrons
 Dipole moment (field-independent basis, Debye):
    X=             -0.0000    Y=             -0.0000    Z=             -1.7543  Tot=              1.7543
 Quadrupole moment (field-independent basis, Debye-Ang):
   XX=             -5.7309   YY=             -5.7309   ZZ=             -8.6915
   XY=             -0.0000   XZ=              0.0000   YZ=             -0.0000
 Traceless Quadrupole moment (field-independent basis, Debye-Ang):
   XX=              0.9869   YY=              0.9869   ZZ=             -1.9737
   XY=             -0.0000   XZ=              0.0000   YZ=             -0.0000
 Octapole moment (field-independent basis, Debye-Ang**2):
  XXX=             -0.0000  YYY=              0.9179  ZZZ=             -1.2953  XYY=              0.0000
  XXY=             -0.9179  XXZ=             -0.7241  XZZ=              0.0000  YZZ=             -0.0000
  YYZ=             -0.7241  XYZ=              0.0000
 Hexadecapole moment (field-independent basis, Debye-Ang**3):
 XXXX=             -8.4231 YYYY=             -8.4231 ZZZZ=             -7.7590 XXXY=              0.0000
 XXXZ=              0.0000 YYYX=              0.0000 YYYZ=             -0.2480 ZZZX=             -0.0000
 ZZZY=             -0.0000 XXYY=             -2.8077 XXZZ=             -2.8576 YYZZ=             -2.8576
 XXYZ=              0.2480 YYXZ=             -0.0000 ZZXY=              0.0000
 N-N= 1.203722575998D+01 E-N=-1.552152388327D+02  KE= 5.575904665469D+01
 Symmetry A'   KE= 5.323216720986D+01
 Symmetry A"   KE= 2.526879444827D+00
 Orbital energies and kinetic energies (alpha):
                                 1                 2
   1         (A1)--O         -15.431544         21.914472
   2         (A1)--O          -1.120137          1.809418
   3         (E)--O           -0.620322          1.263440
   4         (E)--O           -0.620322          1.263440
   5         (A1)--O          -0.389009          1.628753
   6         (A1)--V           0.275261          1.143797
   7         (E)--V            0.377364          1.028246
   8         (E)--V            0.377364          1.028246
   9         (E)--V            1.186379          2.105979
  10         (E)--V            1.186379          2.105979
  11         (A1)--V           1.290057          2.744173
  12         (A1)--V           1.412706          3.807297
  13         (E)--V            1.598687          4.214525
  14         (E)--V            1.598687          4.214525
  15         (A1)--V           2.574640          4.674070
 Total kinetic energy from orbitals= 5.575904665469D+01
 1\1\GINC-IISERK51\SP\RHF\3-21G\H3N1\GAUSSIAN\13-Jun-2025\0\\# hf/3-21g
  pop=full geom=connectivity\\Title Card Required\\0,1\N,0,0.,0.,0.0848
 92\H,0,0.,0.961804,-0.198082\H,0,-0.832947,-0.480902,-0.198082\H,0,0.8
 32947,-0.480902,-0.198082\\Version=EM64L-G16RevB.01\State=1-A1\HF=-55.
 8722034\RMSD=3.927e-10\Dipole=0.,0.,-0.6901893\Quadrupole=0.7337015,0.
 7337015,-1.4674029,0.,0.,0.\PG=C03V [C3(N1),3SGV(H1)]\\@


 IF YOU DON'T HAVE THE LAW - ARGUE THE FACTS.
 IF YOU DON'T HAVE THE FACTS - ARGUE THE LAW.
 IF YOU DON'T HAVE EITHER - POUND THE TABLE.
 Job cpu time:       0 days  0 hours  0 minutes  0.4 seconds.
 Elapsed time:       0 days  0 hours  0 minutes  0.3 seconds.
 File lengths (MBytes):  RWF=      6 Int=      0 D2E=      0 Chk=      1 Scr=      1
 Normal termination of Gaussian 16 at Fri Jun 13 16:14:49 2025.
